
     Program PWSCF v.6.4.1 starts on  7Jul2020 at 12:10: 7 

     This program is part of the open-source Quantum ESPRESSO suite
     for quantum simulation of materials; please cite
         "P. Giannozzi et al., J. Phys.:Condens. Matter 21 395502 (2009);
         "P. Giannozzi et al., J. Phys.:Condens. Matter 29 465901 (2017);
          URL http://www.quantum-espresso.org", 
     in publications or presentations arising from this work. More details at
     http://www.quantum-espresso.org/quote

     Parallel version (MPI), running on     6 processors

     MPI processes distributed on     1 nodes
     R & G space division:  proc/nbgrp/npool/nimage =       6
     Waiting for input...
     Reading input from standard input

     Current dimensions of program PWSCF are:
     Max number of different atomic species (ntypx) = 10
     Max number of k-points (npk) =  40000
     Max angular momentum in pseudopotentials (lmaxx) =  3
               file Si.pbe-n-kjpaw_psl.1.0.0.UPF: wavefunction(s)  3S 3P renormalized
               file O.pbe-n-kjpaw_psl.1.0.0.UPF: wavefunction(s)  2S 2P renormalized

     Subspace diagonalization in iterative solution of the eigenvalue problem:
     a serial algorithm will be used

     Message from routine setup:
     DEPRECATED: symmetry with ibrav=0, use correct ibrav instead

     Parallelization info
     --------------------
     sticks:   dense  smooth     PW     G-vecs:    dense   smooth      PW
     Min         595     197     52                31565     6056     876
     Max         596     199     53                31568     6059     883
     Sum        3571    1189    313               189397    36345    5269



     bravais-lattice index     =            0
     lattice parameter (alat)  =       9.2861  a.u.
     unit-cell volume          =     762.9105 (a.u.)^3
     number of atoms/cell      =            9
     number of atomic types    =            2
     number of electrons       =        48.00
     number of Kohn-Sham states=           24
     kinetic-energy cutoff     =      50.0000  Ry
     charge density cutoff     =     600.0000  Ry
     convergence threshold     =      1.0E-06
     mixing beta               =       0.7000
     number of iterations used =            8  plain     mixing
     Exchange-correlation      = SLA PW PBX PBC ( 1  4  3  4 0 0)

     celldm(1)=   9.286114  celldm(2)=   0.000000  celldm(3)=   0.000000
     celldm(4)=   0.000000  celldm(5)=   0.000000  celldm(6)=   0.000000

     crystal axes: (cart. coord. in units of alat)
               a(1) = (   0.866025  -0.500000   0.000000 )  
               a(2) = (   0.000000   1.000000   0.000000 )  
               a(3) = (   0.000000   0.000000   1.100122 )  

     reciprocal axes: (cart. coord. in units 2 pi/alat)
               b(1) = (  1.154701  0.000000  0.000000 )  
               b(2) = (  0.577350  1.000000 -0.000000 )  
               b(3) = ( -0.000000  0.000000  0.908990 )  


     PseudoPot. # 1 for Si read from file:
     ./Si.pbe-n-kjpaw_psl.1.0.0.UPF
     MD5 check sum: c39c59da582df4a0d9f10159256ea34e
     Pseudo is Projector augmented-wave + core cor, Zval =  4.0
     Generated using "atomic" code by A. Dal Corso v.6.3
     Shape of augmentation charge: PSQ
     Using radial grid of 1141 points,  6 beta functions with: 
                l(1) =   0
                l(2) =   0
                l(3) =   1
                l(4) =   1
                l(5) =   2
                l(6) =   2
     Q(r) pseudized with 0 coefficients 


     PseudoPot. # 2 for O  read from file:
     ./O.pbe-n-kjpaw_psl.1.0.0.UPF
     MD5 check sum: e99d9cef9b487d1ca56f5b95ecd0fd7a
     Pseudo is Projector augmented-wave + core cor, Zval =  6.0
     Generated using "atomic" code by A. Dal Corso v.6.3
     Shape of augmentation charge: PSQ
     Using radial grid of 1095 points,  4 beta functions with: 
                l(1) =   0
                l(2) =   0
                l(3) =   1
                l(4) =   1
     Q(r) pseudized with 0 coefficients 


     atomic species   valence    mass     pseudopotential
        Si             4.00    28.08500     Si( 1.00)
        O              6.00    15.99900     O ( 1.00)

      6 Sym. Ops. (no inversion) found ( 4 have fractional translation)



   Cartesian axes

     site n.     atom                  positions (alat units)
         1           Si  tau(   1) = (   0.4069453  -0.2349500   0.3667074  )
         2           Si  tau(   2) = (   0.4590801   0.2650500   0.0000000  )
         3           Si  tau(   3) = (   0.0000000   0.4699000   0.7334147  )
         4           O   tau(   4) = (   0.3576685   0.0603000   0.2354261  )
         5           O   tau(   5) = (   0.5083569   0.5603000   0.1312812  )
         6           O   tau(   6) = (   0.1266129   0.6601000   0.4979886  )
         7           O   tau(   7) = (   0.6349698  -0.2204000   0.6021335  )
         8           O   tau(   8) = (   0.7394125   0.1601000   0.9688409  )
         9           O   tau(   9) = (   0.2310556   0.2796000   0.8646960  )

     number of k points=     3
                       cart. coord. in units 2pi/alat
        k(    1) = (   0.4330127   0.2500000   0.2272475), wk =   1.0000000
        k(    2) = (   0.1443376  -0.2500000   0.2272475), wk =   0.5000000
        k(    3) = (  -0.1443376   0.2500000   0.2272475), wk =   0.5000000

     Dense  grid:   189397 G-vectors     FFT dimensions: (  75,  75,  81)

     Smooth grid:    36345 G-vectors     FFT dimensions: (  45,  45,  45)

     Estimated max dynamical RAM per process >     119.89 MB

     Estimated total dynamical RAM >     719.32 MB

     Initial potential from superposition of free atoms

     starting charge   47.99831, renormalised to   48.00000
     Starting wfcs are   36 randomized atomic wfcs
     Checking if some PAW data can be deallocated... 

     total cpu time spent up to now is        2.8 secs

     Self-consistent Calculation

     iteration #  1     ecut=    50.00 Ry     beta= 0.70
     Davidson diagonalization with overlap
     ethr =  1.00E-02,  avg # of iterations =  3.7

     total cpu time spent up to now is        4.1 secs

     total energy              =    -389.91623329 Ry
     Harris-Foulkes estimate   =    -391.69786855 Ry
     estimated scf accuracy    <       2.50560290 Ry

     iteration #  2     ecut=    50.00 Ry     beta= 0.70
     Davidson diagonalization with overlap
     ethr =  5.22E-03,  avg # of iterations =  3.0

     total cpu time spent up to now is        5.6 secs

     total energy              =    -390.74167257 Ry
     Harris-Foulkes estimate   =    -391.74270899 Ry
     estimated scf accuracy    <       1.99893582 Ry

     iteration #  3     ecut=    50.00 Ry     beta= 0.70
     Davidson diagonalization with overlap
     ethr =  4.16E-03,  avg # of iterations =  1.7

     total cpu time spent up to now is        7.0 secs

     total energy              =    -390.62951650 Ry
     Harris-Foulkes estimate   =    -390.86579827 Ry
     estimated scf accuracy    <       0.38009350 Ry

     iteration #  4     ecut=    50.00 Ry     beta= 0.70
     Davidson diagonalization with overlap
     ethr =  7.92E-04,  avg # of iterations =  4.0

     total cpu time spent up to now is        8.5 secs

     total energy              =    -391.13132854 Ry
     Harris-Foulkes estimate   =    -391.35979787 Ry
     estimated scf accuracy    <       0.71327823 Ry

     iteration #  5     ecut=    50.00 Ry     beta= 0.70
     Davidson diagonalization with overlap
     ethr =  7.92E-04,  avg # of iterations =  1.0

     total cpu time spent up to now is        9.7 secs

     total energy              =    -391.06650949 Ry
     Harris-Foulkes estimate   =    -391.14589155 Ry
     estimated scf accuracy    <       0.32079053 Ry

     iteration #  6     ecut=    50.00 Ry     beta= 0.70
     Davidson diagonalization with overlap
     ethr =  6.68E-04,  avg # of iterations =  3.0

     total cpu time spent up to now is       11.8 secs

     total energy              =    -391.13987993 Ry
     Harris-Foulkes estimate   =    -391.13980667 Ry
     estimated scf accuracy    <       0.01543607 Ry

     iteration #  7     ecut=    50.00 Ry     beta= 0.70
     Davidson diagonalization with overlap
     ethr =  3.22E-05,  avg # of iterations =  3.0

     total cpu time spent up to now is       13.1 secs

     total energy              =    -391.14165919 Ry
     Harris-Foulkes estimate   =    -391.14221095 Ry
     estimated scf accuracy    <       0.01503859 Ry

     iteration #  8     ecut=    50.00 Ry     beta= 0.70
     Davidson diagonalization with overlap
     ethr =  3.13E-05,  avg # of iterations =  1.0

     total cpu time spent up to now is       14.3 secs

     total energy              =    -391.14076464 Ry
     Harris-Foulkes estimate   =    -391.14188351 Ry
     estimated scf accuracy    <       0.01223824 Ry

     iteration #  9     ecut=    50.00 Ry     beta= 0.70
     Davidson diagonalization with overlap
     ethr =  2.55E-05,  avg # of iterations =  1.0

     total cpu time spent up to now is       15.5 secs

     total energy              =    -391.13737405 Ry
     Harris-Foulkes estimate   =    -391.14087856 Ry
     estimated scf accuracy    <       0.00953180 Ry

     iteration # 10     ecut=    50.00 Ry     beta= 0.70
     Davidson diagonalization with overlap
     ethr =  1.99E-05,  avg # of iterations =  1.3

     total cpu time spent up to now is       16.7 secs

     total energy              =    -391.13773301 Ry
     Harris-Foulkes estimate   =    -391.13792247 Ry
     estimated scf accuracy    <       0.00273262 Ry

     iteration # 11     ecut=    50.00 Ry     beta= 0.70
     Davidson diagonalization with overlap
     ethr =  5.69E-06,  avg # of iterations =  3.7

     total cpu time spent up to now is       18.1 secs

     total energy              =    -391.13892044 Ry
     Harris-Foulkes estimate   =    -391.13891934 Ry
     estimated scf accuracy    <       0.00014874 Ry

     iteration # 12     ecut=    50.00 Ry     beta= 0.70
     Davidson diagonalization with overlap
     ethr =  3.10E-07,  avg # of iterations =  1.0

     total cpu time spent up to now is       19.3 secs

     total energy              =    -391.13898921 Ry
     Harris-Foulkes estimate   =    -391.13892550 Ry
     estimated scf accuracy    <       0.00014090 Ry

     iteration # 13     ecut=    50.00 Ry     beta= 0.70
     Davidson diagonalization with overlap
     ethr =  2.94E-07,  avg # of iterations =  1.0

     total cpu time spent up to now is       20.5 secs

     total energy              =    -391.13907665 Ry
     Harris-Foulkes estimate   =    -391.13899410 Ry
     estimated scf accuracy    <       0.00025471 Ry

     iteration # 14     ecut=    50.00 Ry     beta= 0.70
     Davidson diagonalization with overlap
     ethr =  2.94E-07,  avg # of iterations =  3.0

     total cpu time spent up to now is       21.9 secs

     total energy              =    -391.13912361 Ry
     Harris-Foulkes estimate   =    -391.13911750 Ry
     estimated scf accuracy    <       0.00074363 Ry

     iteration # 15     ecut=    50.00 Ry     beta= 0.70
     Davidson diagonalization with overlap
     ethr =  2.94E-07,  avg # of iterations =  1.0

     total cpu time spent up to now is       23.1 secs

     total energy              =    -391.14024420 Ry
     Harris-Foulkes estimate   =    -391.13912386 Ry
     estimated scf accuracy    <       0.00076281 Ry

     iteration # 16     ecut=    50.00 Ry     beta= 0.70
     Davidson diagonalization with overlap
     ethr =  2.94E-07,  avg # of iterations =  4.0

     total cpu time spent up to now is       24.8 secs

     total energy              =    -391.14520080 Ry
     Harris-Foulkes estimate   =    -391.14072267 Ry
     estimated scf accuracy    <       0.00600433 Ry

     iteration # 17     ecut=    50.00 Ry     beta= 0.70
     Davidson diagonalization with overlap
     ethr =  2.94E-07,  avg # of iterations =  4.0

     total cpu time spent up to now is       26.3 secs

     total energy              =    -391.14337353 Ry
     Harris-Foulkes estimate   =    -391.14635548 Ry
     estimated scf accuracy    <       0.02408605 Ry

     iteration # 18     ecut=    50.00 Ry     beta= 0.70
     Davidson diagonalization with overlap
     ethr =  2.94E-07,  avg # of iterations =  4.0

     total cpu time spent up to now is       27.8 secs

     total energy              =    -391.13624976 Ry
     Harris-Foulkes estimate   =    -391.14357217 Ry
     estimated scf accuracy    <       0.01510806 Ry

     iteration # 19     ecut=    50.00 Ry     beta= 0.70
     Davidson diagonalization with overlap
     ethr =  2.94E-07,  avg # of iterations =  4.0

     total cpu time spent up to now is       29.5 secs

     total energy              =    -391.13886736 Ry
     Harris-Foulkes estimate   =    -391.13888751 Ry
     estimated scf accuracy    <       0.00003411 Ry

     iteration # 20     ecut=    50.00 Ry     beta= 0.70
     Davidson diagonalization with overlap
     ethr =  7.11E-08,  avg # of iterations =  3.0

     total cpu time spent up to now is       31.1 secs

     total energy              =    -391.13889381 Ry
     Harris-Foulkes estimate   =    -391.13891092 Ry
     estimated scf accuracy    <       0.00011332 Ry

     iteration # 21     ecut=    50.00 Ry     beta= 0.70
     Davidson diagonalization with overlap
     ethr =  7.11E-08,  avg # of iterations =  1.0

     total cpu time spent up to now is       32.4 secs

     total energy              =    -391.13886287 Ry
     Harris-Foulkes estimate   =    -391.13889431 Ry
     estimated scf accuracy    <       0.00008041 Ry

     iteration # 22     ecut=    50.00 Ry     beta= 0.70
     Davidson diagonalization with overlap
     ethr =  7.11E-08,  avg # of iterations =  3.0

     total cpu time spent up to now is       33.9 secs

     total energy              =    -391.13887595 Ry
     Harris-Foulkes estimate   =    -391.13887668 Ry
     estimated scf accuracy    <       0.00000147 Ry

     iteration # 23     ecut=    50.00 Ry     beta= 0.70
     Davidson diagonalization with overlap
     ethr =  3.07E-09,  avg # of iterations =  3.0

     total cpu time spent up to now is       35.2 secs

     End of self-consistent calculation

          k = 0.4330 0.2500 0.2272 (  4548 PWs)   bands (ev):

   -16.4020 -15.9403 -15.4019 -14.8062 -14.7884 -14.7429  -5.8084  -4.6960
    -3.8319  -2.8529  -2.5564  -2.2631  -0.6695  -0.3887  -0.1607   0.3026
     0.5495   0.7537   1.1207   1.3077   1.5420   1.8367   2.0907   2.3707

          k = 0.1443-0.2500 0.2272 (  4550 PWs)   bands (ev):

   -16.6400 -15.9314 -15.1349 -14.7836 -14.7655 -14.7248  -6.1824  -4.7467
    -3.4289  -2.9130  -2.6202  -2.4167  -0.6716  -0.2085  -0.0608   0.2472
     0.5402   0.8980   1.0105   1.2427   1.5946   1.7912   2.2151   2.4138

          k =-0.1443 0.2500 0.2272 (  4550 PWs)   bands (ev):

   -16.6423 -15.9210 -15.1593 -14.7812 -14.7403 -14.7359  -6.1847  -4.7481
    -3.4295  -2.9322  -2.6407  -2.3526  -0.6290  -0.1588  -0.1197   0.1161
     0.4858   1.0083   1.0786   1.2236   1.6560   1.7072   2.1293   2.4954

     highest occupied level (ev):     2.4954

!    total energy              =    -391.13887599 Ry
     Harris-Foulkes estimate   =    -391.13887612 Ry
     estimated scf accuracy    <       0.00000018 Ry

     total all-electron energy =     -2644.257812 Ry

     The total energy is the sum of the following terms:

     one-electron contribution =    -101.55628350 Ry
     hartree contribution      =      78.21712918 Ry
     xc contribution           =     -64.64882734 Ry
     ewald contribution        =    -138.99781517 Ry
     one-center paw contrib.   =    -164.15307915 Ry

     convergence has been achieved in  23 iterations

     Writing output data file qa.save/

     init_run     :      1.51s CPU      1.59s WALL (       1 calls)
     electrons    :     30.74s CPU     32.47s WALL (       1 calls)

     Called by init_run:
     wfcinit      :      0.18s CPU      0.18s WALL (       1 calls)
     potinit      :      0.55s CPU      0.55s WALL (       1 calls)
     hinit0       :      0.54s CPU      0.55s WALL (       1 calls)

     Called by electrons:
     c_bands      :      9.05s CPU      9.20s WALL (      23 calls)
     sum_band     :      8.59s CPU      8.89s WALL (      23 calls)
     v_of_rho     :      2.11s CPU      2.21s WALL (      24 calls)
     newd         :      4.30s CPU      5.18s WALL (      24 calls)
     PAW_pot      :      6.60s CPU      6.72s WALL (      24 calls)
     mix_rho      :      0.36s CPU      0.55s WALL (      23 calls)

     Called by c_bands:
     init_us_2    :      0.10s CPU      0.11s WALL (     141 calls)
     cegterg      :      8.58s CPU      8.72s WALL (      69 calls)

     Called by sum_band:
     sum_band:bec :      0.00s CPU      0.00s WALL (      69 calls)
     addusdens    :      6.80s CPU      7.13s WALL (      23 calls)

     Called by *egterg:
     h_psi        :      6.47s CPU      6.92s WALL (     247 calls)
     s_psi        :      0.60s CPU      0.28s WALL (     247 calls)
     g_psi        :      0.01s CPU      0.02s WALL (     175 calls)
     cdiaghg      :      0.36s CPU      0.43s WALL (     244 calls)

     Called by h_psi:
     h_psi:pot    :      6.46s CPU      6.90s WALL (     247 calls)
     h_psi:calbec :      0.66s CPU      0.39s WALL (     247 calls)
     vloc_psi     :      5.21s CPU      6.15s WALL (     247 calls)
     add_vuspsi   :      0.59s CPU      0.36s WALL (     247 calls)

     General routines
     calbec       :      0.86s CPU      0.50s WALL (     316 calls)
     fft          :      1.85s CPU      1.92s WALL (     310 calls)
     ffts         :      0.04s CPU      0.04s WALL (      47 calls)
     fftw         :      5.44s CPU      6.39s WALL (   11800 calls)
     interpolate  :      0.17s CPU      0.18s WALL (      24 calls)

     Parallel routines
     fft_scatt_xy :      0.94s CPU      0.96s WALL (   12157 calls)
     fft_scatt_yz :      2.93s CPU      2.99s WALL (   12157 calls)

     PWSCF        :     33.43s CPU     35.29s WALL


   This run was terminated on:  12:10:42   7Jul2020            

=------------------------------------------------------------------------------=
   JOB DONE.
=------------------------------------------------------------------------------=
