
     Program PWSCF v.6.4.1 starts on  7Jul2020 at 12:10:42 

     This program is part of the open-source Quantum ESPRESSO suite
     for quantum simulation of materials; please cite
         "P. Giannozzi et al., J. Phys.:Condens. Matter 21 395502 (2009);
         "P. Giannozzi et al., J. Phys.:Condens. Matter 29 465901 (2017);
          URL http://www.quantum-espresso.org", 
     in publications or presentations arising from this work. More details at
     http://www.quantum-espresso.org/quote

     Parallel version (MPI), running on     6 processors

     MPI processes distributed on     1 nodes
     R & G space division:  proc/nbgrp/npool/nimage =       6
     Waiting for input...
     Reading input from standard input

     Current dimensions of program PWSCF are:
     Max number of different atomic species (ntypx) = 10
     Max number of k-points (npk) =  40000
     Max angular momentum in pseudopotentials (lmaxx) =  3

     Subspace diagonalization in iterative solution of the eigenvalue problem:
     a serial algorithm will be used

     Message from routine setup:
     DEPRECATED: symmetry with ibrav=0, use correct ibrav instead

     Parallelization info
     --------------------
     sticks:   dense  smooth     PW     G-vecs:    dense   smooth      PW
     Min         595     197     52                31565     6056     876
     Max         596     199     53                31568     6059     883
     Sum        3571    1189    313               189397    36345    5269



     bravais-lattice index     =            0
     lattice parameter (alat)  =       9.2861  a.u.
     unit-cell volume          =     762.9105 (a.u.)^3
     number of atoms/cell      =            9
     number of atomic types    =            2
     number of electrons       =        48.00
     number of Kohn-Sham states=           24
     kinetic-energy cutoff     =      50.0000  Ry
     charge density cutoff     =     600.0000  Ry
     convergence threshold     =      1.0E-06
     mixing beta               =       0.7000
     number of iterations used =            8  plain     mixing
     Exchange-correlation      = PBE ( 1  4  3  4 0 0)

     celldm(1)=   9.286114  celldm(2)=   0.000000  celldm(3)=   0.000000
     celldm(4)=   0.000000  celldm(5)=   0.000000  celldm(6)=   0.000000

     crystal axes: (cart. coord. in units of alat)
               a(1) = (   0.866025  -0.500000   0.000000 )  
               a(2) = (   0.000000   1.000000   0.000000 )  
               a(3) = (   0.000000   0.000000   1.100122 )  

     reciprocal axes: (cart. coord. in units 2 pi/alat)
               b(1) = (  1.154701  0.000000  0.000000 )  
               b(2) = (  0.577350  1.000000 -0.000000 )  
               b(3) = ( -0.000000  0.000000  0.908990 )  


     PseudoPot. # 1 for Si read from file:
     ./Si.pbe-n-rrkjus_psl.1.0.0.UPF
     MD5 check sum: fa25574f73a70a4139f2adfbefec430c
     Pseudo is Ultrasoft + core correction, Zval =  4.0
     Generated using "atomic" code by A. Dal Corso v.6.3
     Using radial grid of 1141 points,  6 beta functions with: 
                l(1) =   0
                l(2) =   0
                l(3) =   1
                l(4) =   1
                l(5) =   2
                l(6) =   2
     Q(r) pseudized with 0 coefficients 


     PseudoPot. # 2 for O  read from file:
     ./O.pbe-n-rrkjus_psl.1.0.0.UPF
     MD5 check sum: 91400c9766925bcf19f520983a725ff0
     Pseudo is Ultrasoft + core correction, Zval =  6.0
     Generated using "atomic" code by A. Dal Corso v.6.3MaX
     Using radial grid of 1095 points,  4 beta functions with: 
                l(1) =   0
                l(2) =   0
                l(3) =   1
                l(4) =   1
     Q(r) pseudized with 0 coefficients 


     atomic species   valence    mass     pseudopotential
        Si             4.00    28.08500     Si( 1.00)
        O              6.00    15.99900     O ( 1.00)

      6 Sym. Ops. (no inversion) found ( 4 have fractional translation)



   Cartesian axes

     site n.     atom                  positions (alat units)
         1           Si  tau(   1) = (   0.4069453  -0.2349500   0.3667074  )
         2           Si  tau(   2) = (   0.4590801   0.2650500   0.0000000  )
         3           Si  tau(   3) = (   0.0000000   0.4699000   0.7334147  )
         4           O   tau(   4) = (   0.3576685   0.0603000   0.2354261  )
         5           O   tau(   5) = (   0.5083569   0.5603000   0.1312812  )
         6           O   tau(   6) = (   0.1266129   0.6601000   0.4979886  )
         7           O   tau(   7) = (   0.6349698  -0.2204000   0.6021335  )
         8           O   tau(   8) = (   0.7394125   0.1601000   0.9688409  )
         9           O   tau(   9) = (   0.2310556   0.2796000   0.8646960  )

     number of k points=     3
                       cart. coord. in units 2pi/alat
        k(    1) = (   0.4330127   0.2500000   0.2272475), wk =   1.0000000
        k(    2) = (   0.1443376  -0.2500000   0.2272475), wk =   0.5000000
        k(    3) = (  -0.1443376   0.2500000   0.2272475), wk =   0.5000000

     Dense  grid:   189397 G-vectors     FFT dimensions: (  75,  75,  81)

     Smooth grid:    36345 G-vectors     FFT dimensions: (  45,  45,  45)

     Estimated max dynamical RAM per process >     119.89 MB

     Estimated total dynamical RAM >     719.32 MB

     Initial potential from superposition of free atoms

     starting charge   47.99831, renormalised to   48.00000
     Starting wfcs are   36 randomized atomic wfcs

     total cpu time spent up to now is        2.5 secs

     Self-consistent Calculation

     iteration #  1     ecut=    50.00 Ry     beta= 0.70
     Davidson diagonalization with overlap
     ethr =  1.00E-02,  avg # of iterations =  4.0

     total cpu time spent up to now is        3.6 secs

     total energy              =    -228.50244463 Ry
     Harris-Foulkes estimate   =    -230.26490271 Ry
     estimated scf accuracy    <       2.50060189 Ry

     iteration #  2     ecut=    50.00 Ry     beta= 0.70
     Davidson diagonalization with overlap
     ethr =  5.21E-03,  avg # of iterations =  3.0

     total cpu time spent up to now is        4.8 secs

     total energy              =    -229.29667786 Ry
     Harris-Foulkes estimate   =    -230.26083711 Ry
     estimated scf accuracy    <       1.93419045 Ry

     iteration #  3     ecut=    50.00 Ry     beta= 0.70
     Davidson diagonalization with overlap
     ethr =  4.03E-03,  avg # of iterations =  1.7

     total cpu time spent up to now is        5.9 secs

     total energy              =    -229.18906464 Ry
     Harris-Foulkes estimate   =    -229.41571996 Ry
     estimated scf accuracy    <       0.36345953 Ry

     iteration #  4     ecut=    50.00 Ry     beta= 0.70
     Davidson diagonalization with overlap
     ethr =  7.57E-04,  avg # of iterations =  3.7

     total cpu time spent up to now is        7.0 secs

     total energy              =    -229.67787562 Ry
     Harris-Foulkes estimate   =    -229.89514693 Ry
     estimated scf accuracy    <       0.70090518 Ry

     iteration #  5     ecut=    50.00 Ry     beta= 0.70
     Davidson diagonalization with overlap
     ethr =  7.57E-04,  avg # of iterations =  1.0

     total cpu time spent up to now is        7.9 secs

     total energy              =    -229.60983442 Ry
     Harris-Foulkes estimate   =    -229.69123958 Ry
     estimated scf accuracy    <       0.32395725 Ry

     iteration #  6     ecut=    50.00 Ry     beta= 0.70
     Davidson diagonalization with overlap
     ethr =  6.75E-04,  avg # of iterations =  3.0

     total cpu time spent up to now is        9.0 secs

     total energy              =    -229.67991664 Ry
     Harris-Foulkes estimate   =    -229.68014474 Ry
     estimated scf accuracy    <       0.01700764 Ry

     iteration #  7     ecut=    50.00 Ry     beta= 0.70
     Davidson diagonalization with overlap
     ethr =  3.54E-05,  avg # of iterations =  2.0

     total cpu time spent up to now is       10.0 secs

     total energy              =    -229.68176108 Ry
     Harris-Foulkes estimate   =    -229.68227802 Ry
     estimated scf accuracy    <       0.01589135 Ry

     iteration #  8     ecut=    50.00 Ry     beta= 0.70
     Davidson diagonalization with overlap
     ethr =  3.31E-05,  avg # of iterations =  1.0

     total cpu time spent up to now is       10.9 secs

     total energy              =    -229.68000816 Ry
     Harris-Foulkes estimate   =    -229.68204215 Ry
     estimated scf accuracy    <       0.01295662 Ry

     iteration #  9     ecut=    50.00 Ry     beta= 0.70
     Davidson diagonalization with overlap
     ethr =  2.70E-05,  avg # of iterations =  1.0

     total cpu time spent up to now is       11.9 secs

     total energy              =    -229.67794892 Ry
     Harris-Foulkes estimate   =    -229.68021535 Ry
     estimated scf accuracy    <       0.00840617 Ry

     iteration # 10     ecut=    50.00 Ry     beta= 0.70
     Davidson diagonalization with overlap
     ethr =  1.75E-05,  avg # of iterations =  2.3

     total cpu time spent up to now is       12.9 secs

     total energy              =    -229.67851187 Ry
     Harris-Foulkes estimate   =    -229.67888696 Ry
     estimated scf accuracy    <       0.00171579 Ry

     iteration # 11     ecut=    50.00 Ry     beta= 0.70
     Davidson diagonalization with overlap
     ethr =  3.57E-06,  avg # of iterations =  3.3

     total cpu time spent up to now is       14.0 secs

     total energy              =    -229.67902581 Ry
     Harris-Foulkes estimate   =    -229.67900846 Ry
     estimated scf accuracy    <       0.00025564 Ry

     iteration # 12     ecut=    50.00 Ry     beta= 0.70
     Davidson diagonalization with overlap
     ethr =  5.33E-07,  avg # of iterations =  2.7

     total cpu time spent up to now is       15.4 secs

     total energy              =    -229.67906527 Ry
     Harris-Foulkes estimate   =    -229.67906150 Ry
     estimated scf accuracy    <       0.00022555 Ry

     iteration # 13     ecut=    50.00 Ry     beta= 0.70
     Davidson diagonalization with overlap
     ethr =  4.70E-07,  avg # of iterations =  1.0

     total cpu time spent up to now is       16.5 secs

     total energy              =    -229.67909568 Ry
     Harris-Foulkes estimate   =    -229.67906786 Ry
     estimated scf accuracy    <       0.00022282 Ry

     iteration # 14     ecut=    50.00 Ry     beta= 0.70
     Davidson diagonalization with overlap
     ethr =  4.64E-07,  avg # of iterations =  1.0

     total cpu time spent up to now is       17.6 secs

     total energy              =    -229.67908815 Ry
     Harris-Foulkes estimate   =    -229.67909772 Ry
     estimated scf accuracy    <       0.00027813 Ry

     iteration # 15     ecut=    50.00 Ry     beta= 0.70
     Davidson diagonalization with overlap
     ethr =  4.64E-07,  avg # of iterations =  1.0

     total cpu time spent up to now is       18.7 secs

     total energy              =    -229.67959965 Ry
     Harris-Foulkes estimate   =    -229.67908921 Ry
     estimated scf accuracy    <       0.00026468 Ry

     iteration # 16     ecut=    50.00 Ry     beta= 0.70
     Davidson diagonalization with overlap
     ethr =  4.64E-07,  avg # of iterations =  3.3

     total cpu time spent up to now is       19.9 secs

     total energy              =    -229.67976564 Ry
     Harris-Foulkes estimate   =    -229.67990356 Ry
     estimated scf accuracy    <       0.00291193 Ry

     iteration # 17     ecut=    50.00 Ry     beta= 0.70
     Davidson diagonalization with overlap
     ethr =  4.64E-07,  avg # of iterations =  1.0

     total cpu time spent up to now is       20.9 secs

     total energy              =    -229.67949968 Ry
     Harris-Foulkes estimate   =    -229.67976687 Ry
     estimated scf accuracy    <       0.00265696 Ry

     iteration # 18     ecut=    50.00 Ry     beta= 0.70
     Davidson diagonalization with overlap
     ethr =  4.64E-07,  avg # of iterations =  1.0

     total cpu time spent up to now is       21.9 secs

     total energy              =    -229.67916588 Ry
     Harris-Foulkes estimate   =    -229.67950889 Ry
     estimated scf accuracy    <       0.00205334 Ry

     iteration # 19     ecut=    50.00 Ry     beta= 0.70
     Davidson diagonalization with overlap
     ethr =  4.64E-07,  avg # of iterations =  3.0

     total cpu time spent up to now is       23.0 secs

     total energy              =    -229.67908133 Ry
     Harris-Foulkes estimate   =    -229.67925041 Ry
     estimated scf accuracy    <       0.00080177 Ry

     iteration # 20     ecut=    50.00 Ry     beta= 0.70
     Davidson diagonalization with overlap
     ethr =  4.64E-07,  avg # of iterations =  1.0

     total cpu time spent up to now is       24.1 secs

     total energy              =    -229.67869322 Ry
     Harris-Foulkes estimate   =    -229.67908780 Ry
     estimated scf accuracy    <       0.00050343 Ry

     iteration # 21     ecut=    50.00 Ry     beta= 0.70
     Davidson diagonalization with overlap
     ethr =  4.64E-07,  avg # of iterations =  4.0

     total cpu time spent up to now is       25.4 secs

     total energy              =    -229.67844974 Ry
     Harris-Foulkes estimate   =    -229.67946298 Ry
     estimated scf accuracy    <       0.00152155 Ry

     iteration # 22     ecut=    50.00 Ry     beta= 0.70
     Davidson diagonalization with overlap
     ethr =  4.64E-07,  avg # of iterations =  4.0

     total cpu time spent up to now is       26.9 secs

     total energy              =    -229.67898937 Ry
     Harris-Foulkes estimate   =    -229.67913253 Ry
     estimated scf accuracy    <       0.00044560 Ry

     iteration # 23     ecut=    50.00 Ry     beta= 0.70
     Davidson diagonalization with overlap
     ethr =  4.64E-07,  avg # of iterations =  1.0

     total cpu time spent up to now is       27.9 secs

     total energy              =    -229.67888930 Ry
     Harris-Foulkes estimate   =    -229.67899789 Ry
     estimated scf accuracy    <       0.00019602 Ry

     iteration # 24     ecut=    50.00 Ry     beta= 0.70
     Davidson diagonalization with overlap
     ethr =  4.08E-07,  avg # of iterations =  3.0

     total cpu time spent up to now is       29.1 secs

     total energy              =    -229.67899620 Ry
     Harris-Foulkes estimate   =    -229.67901409 Ry
     estimated scf accuracy    <       0.00006067 Ry

     iteration # 25     ecut=    50.00 Ry     beta= 0.70
     Davidson diagonalization with overlap
     ethr =  1.26E-07,  avg # of iterations =  1.0

     total cpu time spent up to now is       30.4 secs

     total energy              =    -229.67898191 Ry
     Harris-Foulkes estimate   =    -229.67899724 Ry
     estimated scf accuracy    <       0.00002952 Ry

     iteration # 26     ecut=    50.00 Ry     beta= 0.70
     Davidson diagonalization with overlap
     ethr =  6.15E-08,  avg # of iterations =  3.0

     total cpu time spent up to now is       32.0 secs

     total energy              =    -229.67899494 Ry
     Harris-Foulkes estimate   =    -229.67899705 Ry
     estimated scf accuracy    <       0.00000467 Ry

     iteration # 27     ecut=    50.00 Ry     beta= 0.70
     Davidson diagonalization with overlap
     ethr =  9.73E-09,  avg # of iterations =  1.0

     total cpu time spent up to now is       33.3 secs

     total energy              =    -229.67899475 Ry
     Harris-Foulkes estimate   =    -229.67899515 Ry
     estimated scf accuracy    <       0.00000117 Ry

     iteration # 28     ecut=    50.00 Ry     beta= 0.70
     Davidson diagonalization with overlap
     ethr =  2.45E-09,  avg # of iterations =  3.0

     total cpu time spent up to now is       34.7 secs

     End of self-consistent calculation

          k = 0.4330 0.2500 0.2272 (  4548 PWs)   bands (ev):

   -16.3938 -15.9323 -15.3942 -14.7991 -14.7812 -14.7357  -5.7963  -4.6850
    -3.8221  -2.8448  -2.5485  -2.2555  -0.6641  -0.3836  -0.1565   0.3072
     0.5539   0.7582   1.1245   1.3121   1.5456   1.8406   2.0940   2.3739

          k = 0.1443-0.2500 0.2272 (  4550 PWs)   bands (ev):

   -16.6318 -15.9234 -15.1274 -14.7764 -14.7584 -14.7174  -6.1699  -4.7357
    -3.4198  -2.9047  -2.6122  -2.4088  -0.6666  -0.2026  -0.0565   0.2511
     0.5448   0.9017   1.0147   1.2462   1.5993   1.7953   2.2180   2.4174

          k =-0.1443 0.2500 0.2272 (  4550 PWs)   bands (ev):

   -16.6340 -15.9130 -15.1518 -14.7741 -14.7331 -14.7285  -6.1723  -4.7371
    -3.4204  -2.9239  -2.6326  -2.3448  -0.6240  -0.1529  -0.1155   0.1205
     0.4903   1.0124   1.0818   1.2272   1.6603   1.7118   2.1326   2.4986

     highest occupied level (ev):     2.4986

!    total energy              =    -229.67899553 Ry
     Harris-Foulkes estimate   =    -229.67899568 Ry
     estimated scf accuracy    <       0.00000019 Ry

     The total energy is the sum of the following terms:

     one-electron contribution =    -104.27618217 Ry
     hartree contribution      =      78.25109644 Ry
     xc contribution           =     -64.65609463 Ry
     ewald contribution        =    -138.99781517 Ry

     convergence has been achieved in  28 iterations

     Writing output data file qa.save/

     init_run     :      1.30s CPU      1.36s WALL (       1 calls)
     electrons    :     30.03s CPU     32.23s WALL (       1 calls)

     Called by init_run:
     wfcinit      :      0.18s CPU      0.18s WALL (       1 calls)
     potinit      :      0.27s CPU      0.28s WALL (       1 calls)
     hinit0       :      0.59s CPU      0.60s WALL (       1 calls)

     Called by electrons:
     c_bands      :     10.35s CPU      9.98s WALL (      28 calls)
     sum_band     :     10.87s CPU     11.71s WALL (      28 calls)
     v_of_rho     :      2.64s CPU      2.79s WALL (      29 calls)
     newd         :      5.62s CPU      6.95s WALL (      29 calls)
     mix_rho      :      0.48s CPU      0.73s WALL (      28 calls)

     Called by c_bands:
     init_us_2    :      0.13s CPU      0.14s WALL (     171 calls)
     cegterg      :      9.83s CPU      9.43s WALL (      84 calls)

     Called by sum_band:
     sum_band:bec :      0.00s CPU      0.00s WALL (      84 calls)
     addusdens    :      8.72s CPU      9.55s WALL (      28 calls)

     Called by *egterg:
     h_psi        :      7.54s CPU      7.22s WALL (     270 calls)
     s_psi        :      0.68s CPU      0.33s WALL (     270 calls)
     g_psi        :      0.02s CPU      0.02s WALL (     183 calls)
     cdiaghg      :      0.38s CPU      0.46s WALL (     267 calls)

     Called by h_psi:
     h_psi:pot    :      7.52s CPU      7.20s WALL (     270 calls)
     h_psi:calbec :      0.73s CPU      0.45s WALL (     270 calls)
     vloc_psi     :      6.10s CPU      6.30s WALL (     270 calls)
     add_vuspsi   :      0.68s CPU      0.44s WALL (     270 calls)

     General routines
     calbec       :      0.98s CPU      0.58s WALL (     354 calls)
     fft          :      2.40s CPU      2.50s WALL (     375 calls)
     ffts         :      0.06s CPU      0.07s WALL (      57 calls)
     fftw         :      6.42s CPU      6.62s WALL (   13354 calls)
     interpolate  :      0.25s CPU      0.26s WALL (      29 calls)

     Parallel routines
     fft_scatt_xy :      1.21s CPU      1.25s WALL (   13786 calls)
     fft_scatt_yz :      3.29s CPU      3.39s WALL (   13786 calls)

     PWSCF        :     32.53s CPU     34.85s WALL


   This run was terminated on:  12:11:17   7Jul2020            

=------------------------------------------------------------------------------=
   JOB DONE.
=------------------------------------------------------------------------------=
