
     Program PWSCF v.6.4.1 starts on  7Jul2020 at 12:11:17 

     This program is part of the open-source Quantum ESPRESSO suite
     for quantum simulation of materials; please cite
         "P. Giannozzi et al., J. Phys.:Condens. Matter 21 395502 (2009);
         "P. Giannozzi et al., J. Phys.:Condens. Matter 29 465901 (2017);
          URL http://www.quantum-espresso.org", 
     in publications or presentations arising from this work. More details at
     http://www.quantum-espresso.org/quote

     Parallel version (MPI), running on     6 processors

     MPI processes distributed on     1 nodes
     R & G space division:  proc/nbgrp/npool/nimage =       6
     Waiting for input...
     Reading input from standard input

     Current dimensions of program PWSCF are:
     Max number of different atomic species (ntypx) = 10
     Max number of k-points (npk) =  40000
     Max angular momentum in pseudopotentials (lmaxx) =  3
               file Si.pbe-n-kjpaw_psl.1.0.0.UPF: wavefunction(s)  3S 3P renormalized
               file O.pbe-n-kjpaw_psl.1.0.0.UPF: wavefunction(s)  2S 2P renormalized

     Subspace diagonalization in iterative solution of the eigenvalue problem:
     a serial algorithm will be used

     Message from routine setup:
     DEPRECATED: symmetry with ibrav=0, use correct ibrav instead

     Parallelization info
     --------------------
     sticks:   dense  smooth     PW     G-vecs:    dense   smooth      PW
     Min         614     206     57                33211     6398     937
     Max         616     207     59                33214     6403     939
     Sum        3691    1237    349               199275    38399    5629



     bravais-lattice index     =            0
     lattice parameter (alat)  =       9.4732  a.u.
     unit-cell volume          =     803.3596 (a.u.)^3
     number of atoms/cell      =            9
     number of atomic types    =            2
     number of electrons       =        48.00
     number of Kohn-Sham states=           24
     kinetic-energy cutoff     =      50.0000  Ry
     charge density cutoff     =     600.0000  Ry
     convergence threshold     =      1.0E-06
     mixing beta               =       0.7000
     number of iterations used =            8  plain     mixing
     Exchange-correlation      = SLA PW PBX PBC ( 1  4  3  4 0 0)

     celldm(1)=   9.473197  celldm(2)=   0.000000  celldm(3)=   0.000000
     celldm(4)=   0.000000  celldm(5)=   0.000000  celldm(6)=   0.000000

     crystal axes: (cart. coord. in units of alat)
               a(1) = (   0.866025  -0.500000   0.000000 )  
               a(2) = (   0.000000   1.000000   0.000000 )  
               a(3) = (   0.000000   0.000000   1.091163 )  

     reciprocal axes: (cart. coord. in units 2 pi/alat)
               b(1) = (  1.154701  0.000000  0.000000 )  
               b(2) = (  0.577350  1.000000 -0.000000 )  
               b(3) = ( -0.000000  0.000000  0.916453 )  


     PseudoPot. # 1 for Si read from file:
     ./Si.pbe-n-kjpaw_psl.1.0.0.UPF
     MD5 check sum: c39c59da582df4a0d9f10159256ea34e
     Pseudo is Projector augmented-wave + core cor, Zval =  4.0
     Generated using "atomic" code by A. Dal Corso v.6.3
     Shape of augmentation charge: PSQ
     Using radial grid of 1141 points,  6 beta functions with: 
                l(1) =   0
                l(2) =   0
                l(3) =   1
                l(4) =   1
                l(5) =   2
                l(6) =   2
     Q(r) pseudized with 0 coefficients 


     PseudoPot. # 2 for O  read from file:
     ./O.pbe-n-kjpaw_psl.1.0.0.UPF
     MD5 check sum: e99d9cef9b487d1ca56f5b95ecd0fd7a
     Pseudo is Projector augmented-wave + core cor, Zval =  6.0
     Generated using "atomic" code by A. Dal Corso v.6.3
     Shape of augmentation charge: PSQ
     Using radial grid of 1095 points,  4 beta functions with: 
                l(1) =   0
                l(2) =   0
                l(3) =   1
                l(4) =   1
     Q(r) pseudized with 0 coefficients 


     atomic species   valence    mass     pseudopotential
        Si             4.00    28.08500     Si( 1.00)
        O              6.00    15.99900     O ( 1.00)

     12 Sym. Ops. (no inversion) found ( 8 have fractional translation)



   Cartesian axes

     site n.     atom                  positions (alat units)
         1           Si  tau(   1) = (   0.4330127   0.2500000   0.3637210  )
         2           Si  tau(   2) = (   0.0000000   0.5000000   0.7274420  )
         3           Si  tau(   3) = (   0.4330127  -0.2500000   0.0000000  )
         4           O   tau(   4) = (   0.1706070   0.7045000   0.9093025  )
         5           O   tau(   5) = (   0.5248114   0.5000000   0.1818605  )
         6           O   tau(   6) = (   0.3412140   0.0000000   0.1818605  )
         7           O   tau(   7) = (   0.6954184  -0.2045000   0.9093025  )
         8           O   tau(   8) = (   0.6954184   0.2045000   0.5455815  )
         9           O   tau(   9) = (   0.1706070   0.2955000   0.5455815  )

     number of k points=     2
                       cart. coord. in units 2pi/alat
        k(    1) = (   0.4330127   0.2500000   0.2291133), wk =   1.0000000
        k(    2) = (   0.1443376  -0.2500000   0.2291133), wk =   1.0000000

     Dense  grid:   199275 G-vectors     FFT dimensions: (  75,  75,  81)

     Smooth grid:    38399 G-vectors     FFT dimensions: (  45,  45,  48)

     Estimated max dynamical RAM per process >     125.38 MB

     Estimated total dynamical RAM >     752.27 MB

     Initial potential from superposition of free atoms

     starting charge   47.99831, renormalised to   48.00000
     Starting wfcs are   36 randomized atomic wfcs
     Checking if some PAW data can be deallocated... 

     total cpu time spent up to now is        3.5 secs

     Self-consistent Calculation

     iteration #  1     ecut=    50.00 Ry     beta= 0.70
     Davidson diagonalization with overlap
     ethr =  1.00E-02,  avg # of iterations =  3.5

     total cpu time spent up to now is        4.9 secs

     total energy              =    -389.79009148 Ry
     Harris-Foulkes estimate   =    -391.64933210 Ry
     estimated scf accuracy    <       2.59392631 Ry

     iteration #  2     ecut=    50.00 Ry     beta= 0.70
     Davidson diagonalization with overlap
     ethr =  5.40E-03,  avg # of iterations =  3.0

     total cpu time spent up to now is        6.4 secs

     total energy              =    -390.66779967 Ry
     Harris-Foulkes estimate   =    -391.80600023 Ry
     estimated scf accuracy    <       2.31325991 Ry

     iteration #  3     ecut=    50.00 Ry     beta= 0.70
     Davidson diagonalization with overlap
     ethr =  4.82E-03,  avg # of iterations =  1.0

     total cpu time spent up to now is        7.8 secs

     total energy              =    -390.50454072 Ry
     Harris-Foulkes estimate   =    -390.79586592 Ry
     estimated scf accuracy    <       0.49847014 Ry

     iteration #  4     ecut=    50.00 Ry     beta= 0.70
     Davidson diagonalization with overlap
     ethr =  1.04E-03,  avg # of iterations =  4.0

     total cpu time spent up to now is        9.4 secs

     total energy              =    -391.13942609 Ry
     Harris-Foulkes estimate   =    -391.36651597 Ry
     estimated scf accuracy    <       0.78755910 Ry

     iteration #  5     ecut=    50.00 Ry     beta= 0.70
     Davidson diagonalization with overlap
     ethr =  1.04E-03,  avg # of iterations =  1.0

     total cpu time spent up to now is       10.7 secs

     total energy              =    -391.05465920 Ry
     Harris-Foulkes estimate   =    -391.15158132 Ry
     estimated scf accuracy    <       0.39946395 Ry

     iteration #  6     ecut=    50.00 Ry     beta= 0.70
     Davidson diagonalization with overlap
     ethr =  8.32E-04,  avg # of iterations =  3.0

     total cpu time spent up to now is       12.1 secs

     total energy              =    -391.12781684 Ry
     Harris-Foulkes estimate   =    -391.12767474 Ry
     estimated scf accuracy    <       0.03218365 Ry

     iteration #  7     ecut=    50.00 Ry     beta= 0.70
     Davidson diagonalization with overlap
     ethr =  6.70E-05,  avg # of iterations =  2.5

     total cpu time spent up to now is       13.5 secs

     total energy              =    -391.13216069 Ry
     Harris-Foulkes estimate   =    -391.13089880 Ry
     estimated scf accuracy    <       0.03093008 Ry

     iteration #  8     ecut=    50.00 Ry     beta= 0.70
     Davidson diagonalization with overlap
     ethr =  6.44E-05,  avg # of iterations =  1.0

     total cpu time spent up to now is       14.8 secs

     total energy              =    -391.12002821 Ry
     Harris-Foulkes estimate   =    -391.13247279 Ry
     estimated scf accuracy    <       0.03216035 Ry

     iteration #  9     ecut=    50.00 Ry     beta= 0.70
     Davidson diagonalization with overlap
     ethr =  6.44E-05,  avg # of iterations =  1.0

     total cpu time spent up to now is       16.2 secs

     total energy              =    -391.11617171 Ry
     Harris-Foulkes estimate   =    -391.12121609 Ry
     estimated scf accuracy    <       0.01106805 Ry

     iteration # 10     ecut=    50.00 Ry     beta= 0.70
     Davidson diagonalization with overlap
     ethr =  2.31E-05,  avg # of iterations =  3.0

     total cpu time spent up to now is       17.7 secs

     total energy              =    -391.12487636 Ry
     Harris-Foulkes estimate   =    -391.12498460 Ry
     estimated scf accuracy    <       0.00351199 Ry

     iteration # 11     ecut=    50.00 Ry     beta= 0.70
     Davidson diagonalization with overlap
     ethr =  7.32E-06,  avg # of iterations =  1.0

     total cpu time spent up to now is       19.2 secs

     total energy              =    -391.12353651 Ry
     Harris-Foulkes estimate   =    -391.12489736 Ry
     estimated scf accuracy    <       0.00319999 Ry

     iteration # 12     ecut=    50.00 Ry     beta= 0.70
     Davidson diagonalization with overlap
     ethr =  6.67E-06,  avg # of iterations =  1.5

     total cpu time spent up to now is       20.8 secs

     total energy              =    -391.12394774 Ry
     Harris-Foulkes estimate   =    -391.12368246 Ry
     estimated scf accuracy    <       0.00079785 Ry

     iteration # 13     ecut=    50.00 Ry     beta= 0.70
     Davidson diagonalization with overlap
     ethr =  1.66E-06,  avg # of iterations =  3.0

     total cpu time spent up to now is       22.3 secs

     total energy              =    -391.12420855 Ry
     Harris-Foulkes estimate   =    -391.12404855 Ry
     estimated scf accuracy    <       0.00097404 Ry

     iteration # 14     ecut=    50.00 Ry     beta= 0.70
     Davidson diagonalization with overlap
     ethr =  1.66E-06,  avg # of iterations =  1.0

     total cpu time spent up to now is       23.6 secs

     total energy              =    -391.12386468 Ry
     Harris-Foulkes estimate   =    -391.12423707 Ry
     estimated scf accuracy    <       0.00096053 Ry

     iteration # 15     ecut=    50.00 Ry     beta= 0.70
     Davidson diagonalization with overlap
     ethr =  1.66E-06,  avg # of iterations =  3.0

     total cpu time spent up to now is       24.9 secs

     total energy              =    -391.12394583 Ry
     Harris-Foulkes estimate   =    -391.12395671 Ry
     estimated scf accuracy    <       0.00017232 Ry

     iteration # 16     ecut=    50.00 Ry     beta= 0.70
     Davidson diagonalization with overlap
     ethr =  3.59E-07,  avg # of iterations =  4.0

     total cpu time spent up to now is       26.4 secs

     total energy              =    -391.12476049 Ry
     Harris-Foulkes estimate   =    -391.12496979 Ry
     estimated scf accuracy    <       0.00323962 Ry

     iteration # 17     ecut=    50.00 Ry     beta= 0.70
     Davidson diagonalization with overlap
     ethr =  3.59E-07,  avg # of iterations =  1.0

     total cpu time spent up to now is       27.7 secs

     total energy              =    -391.12339593 Ry
     Harris-Foulkes estimate   =    -391.12476251 Ry
     estimated scf accuracy    <       0.00286623 Ry

     iteration # 18     ecut=    50.00 Ry     beta= 0.70
     Davidson diagonalization with overlap
     ethr =  3.59E-07,  avg # of iterations =  4.0

     total cpu time spent up to now is       29.3 secs

     total energy              =    -391.12404492 Ry
     Harris-Foulkes estimate   =    -391.12398148 Ry
     estimated scf accuracy    <       0.00001306 Ry

     iteration # 19     ecut=    50.00 Ry     beta= 0.70
     Davidson diagonalization with overlap
     ethr =  2.72E-08,  avg # of iterations =  4.0

     total cpu time spent up to now is       30.8 secs

     total energy              =    -391.12421512 Ry
     Harris-Foulkes estimate   =    -391.12414894 Ry
     estimated scf accuracy    <       0.00057001 Ry

     iteration # 20     ecut=    50.00 Ry     beta= 0.70
     Davidson diagonalization with overlap
     ethr =  2.72E-08,  avg # of iterations =  4.0

     total cpu time spent up to now is       32.1 secs

     total energy              =    -391.12416377 Ry
     Harris-Foulkes estimate   =    -391.12421701 Ry
     estimated scf accuracy    <       0.00072474 Ry

     iteration # 21     ecut=    50.00 Ry     beta= 0.70
     Davidson diagonalization with overlap
     ethr =  2.72E-08,  avg # of iterations =  1.0

     total cpu time spent up to now is       33.4 secs

     total energy              =    -391.12397408 Ry
     Harris-Foulkes estimate   =    -391.12416460 Ry
     estimated scf accuracy    <       0.00063352 Ry

     iteration # 22     ecut=    50.00 Ry     beta= 0.70
     Davidson diagonalization with overlap
     ethr =  2.72E-08,  avg # of iterations =  4.0

     total cpu time spent up to now is       34.9 secs

     total energy              =    -391.12393805 Ry
     Harris-Foulkes estimate   =    -391.12401337 Ry
     estimated scf accuracy    <       0.00012269 Ry

     iteration # 23     ecut=    50.00 Ry     beta= 0.70
     Davidson diagonalization with overlap
     ethr =  2.72E-08,  avg # of iterations =  4.0

     total cpu time spent up to now is       36.3 secs

     total energy              =    -391.12397671 Ry
     Harris-Foulkes estimate   =    -391.12398115 Ry
     estimated scf accuracy    <       0.00001536 Ry

     iteration # 24     ecut=    50.00 Ry     beta= 0.70
     Davidson diagonalization with overlap
     ethr =  2.72E-08,  avg # of iterations =  1.0

     total cpu time spent up to now is       37.5 secs

     total energy              =    -391.12397122 Ry
     Harris-Foulkes estimate   =    -391.12397694 Ry
     estimated scf accuracy    <       0.00000770 Ry

     iteration # 25     ecut=    50.00 Ry     beta= 0.70
     Davidson diagonalization with overlap
     ethr =  1.60E-08,  avg # of iterations =  4.0

     total cpu time spent up to now is       38.9 secs

     total energy              =    -391.12396988 Ry
     Harris-Foulkes estimate   =    -391.12399190 Ry
     estimated scf accuracy    <       0.00005059 Ry

     iteration # 26     ecut=    50.00 Ry     beta= 0.70
     Davidson diagonalization with overlap
     ethr =  1.60E-08,  avg # of iterations =  3.0

     total cpu time spent up to now is       40.4 secs

     total energy              =    -391.12397786 Ry
     Harris-Foulkes estimate   =    -391.12397681 Ry
     estimated scf accuracy    <       0.00000106 Ry

     iteration # 27     ecut=    50.00 Ry     beta= 0.70
     Davidson diagonalization with overlap
     ethr =  2.22E-09,  avg # of iterations =  4.0

     total cpu time spent up to now is       41.6 secs

     total energy              =    -391.12397604 Ry
     Harris-Foulkes estimate   =    -391.12397809 Ry
     estimated scf accuracy    <       0.00000430 Ry

     iteration # 28     ecut=    50.00 Ry     beta= 0.70
     Davidson diagonalization with overlap
     ethr =  2.22E-09,  avg # of iterations =  3.0

     total cpu time spent up to now is       43.1 secs

     End of self-consistent calculation

          k = 0.4330 0.2500 0.2291 (  4788 PWs)   bands (ev):

   -16.7974 -16.3397 -15.8551 -15.2691 -15.1584 -15.1058  -6.3925  -5.1770
    -4.3470  -3.4361  -2.7906  -2.2938  -1.0630  -0.9348  -0.5893  -0.0731
     0.0824   0.3693   0.5670   0.8878   1.1406   1.3899   1.6508   1.9107

          k = 0.1443-0.2500 0.2291 (  4795 PWs)   bands (ev):

   -17.0080 -16.3376 -15.5501 -15.3121 -15.1276 -15.1078  -6.7372  -5.2370
    -3.8432  -3.6416  -2.8119  -2.3439  -0.9825  -0.8451  -0.3829  -0.2655
    -0.0137   0.3910   0.5576   0.6302   1.3246   1.4383   1.6898   2.0237

     highest occupied level (ev):     2.0237

!    total energy              =    -391.12397644 Ry
     Harris-Foulkes estimate   =    -391.12397655 Ry
     estimated scf accuracy    <       0.00000013 Ry

     total all-electron energy =     -2644.242913 Ry

     The total energy is the sum of the following terms:

     one-electron contribution =    -109.50474884 Ry
     hartree contribution      =      81.36852232 Ry
     xc contribution           =     -64.53557293 Ry
     ewald contribution        =    -134.30130761 Ry
     one-center paw contrib.   =    -164.15086939 Ry

     convergence has been achieved in  28 iterations

     Writing output data file qb.save/

     init_run     :      1.88s CPU      1.98s WALL (       1 calls)
     electrons    :     37.11s CPU     39.55s WALL (       1 calls)

     Called by init_run:
     wfcinit      :      0.13s CPU      0.14s WALL (       1 calls)
     potinit      :      0.72s CPU      0.73s WALL (       1 calls)
     hinit0       :      0.71s CPU      0.74s WALL (       1 calls)

     Called by electrons:
     c_bands      :      8.28s CPU      7.94s WALL (      28 calls)
     sum_band     :     11.16s CPU     12.10s WALL (      28 calls)
     v_of_rho     :      2.75s CPU      2.90s WALL (      29 calls)
     newd         :      5.73s CPU      6.96s WALL (      29 calls)
     PAW_pot      :      9.01s CPU      9.23s WALL (      29 calls)
     mix_rho      :      0.52s CPU      0.76s WALL (      28 calls)

     Called by c_bands:
     init_us_2    :      0.10s CPU      0.11s WALL (     114 calls)
     cegterg      :      7.64s CPU      7.28s WALL (      56 calls)

     Called by sum_band:
     sum_band:bec :      0.00s CPU      0.00s WALL (      56 calls)
     addusdens    :      9.48s CPU     10.41s WALL (      28 calls)

     Called by *egterg:
     h_psi        :      5.76s CPU      5.55s WALL (     205 calls)
     s_psi        :      0.52s CPU      0.31s WALL (     205 calls)
     g_psi        :      0.01s CPU      0.02s WALL (     147 calls)
     cdiaghg      :      0.31s CPU      0.38s WALL (     203 calls)

     Called by h_psi:
     h_psi:pot    :      5.74s CPU      5.53s WALL (     205 calls)
     h_psi:calbec :      0.56s CPU      0.35s WALL (     205 calls)
     vloc_psi     :      4.67s CPU      4.78s WALL (     205 calls)
     add_vuspsi   :      0.52s CPU      0.39s WALL (     205 calls)

     General routines
     calbec       :      0.73s CPU      0.45s WALL (     261 calls)
     fft          :      2.43s CPU      2.53s WALL (     375 calls)
     ffts         :      0.06s CPU      0.06s WALL (      57 calls)
     fftw         :      4.89s CPU      5.01s WALL (    9614 calls)
     interpolate  :      0.24s CPU      0.25s WALL (      29 calls)

     Parallel routines
     fft_scatt_xy :      1.00s CPU      1.03s WALL (   10046 calls)
     fft_scatt_yz :      2.89s CPU      2.97s WALL (   10046 calls)

     PWSCF        :     40.55s CPU     43.16s WALL


   This run was terminated on:  12:12: 1   7Jul2020            

=------------------------------------------------------------------------------=
   JOB DONE.
=------------------------------------------------------------------------------=
