
     Program PWSCF v.6.4.1 starts on  7Jul2020 at  3: 8: 3 

     This program is part of the open-source Quantum ESPRESSO suite
     for quantum simulation of materials; please cite
         "P. Giannozzi et al., J. Phys.:Condens. Matter 21 395502 (2009);
         "P. Giannozzi et al., J. Phys.:Condens. Matter 29 465901 (2017);
          URL http://www.quantum-espresso.org", 
     in publications or presentations arising from this work. More details at
     http://www.quantum-espresso.org/quote

     Parallel version (MPI), running on     6 processors

     MPI processes distributed on     1 nodes
     R & G space division:  proc/nbgrp/npool/nimage =       6
     Waiting for input...
     Reading input from standard input

     Current dimensions of program PWSCF are:
     Max number of different atomic species (ntypx) = 10
     Max number of k-points (npk) =  40000
     Max angular momentum in pseudopotentials (lmaxx) =  3

     Atomic positions and unit cell read from directory:
     out_qa/qa.save/

               file Si.pbe-n-kjpaw_psl.1.0.0.UPF: wavefunction(s)  3S 3P renormalized
               file O.pbe-n-kjpaw_psl.1.0.0.UPF: wavefunction(s)  2S 2P renormalized

     Subspace diagonalization in iterative solution of the eigenvalue problem:
     a serial algorithm will be used

     Message from routine setup:
     DEPRECATED: symmetry with ibrav=0, use correct ibrav instead

     Parallelization info
     --------------------
     sticks:   dense  smooth     PW     G-vecs:    dense   smooth      PW
     Min         397     197     57                17191     6056     949
     Max         398     199     59                17194     6059     951
     Sum        2383    1189    349               103151    36345    5701



     bravais-lattice index     =            0
     lattice parameter (alat)  =       9.2861  a.u.
     unit-cell volume          =     762.9105 (a.u.)^3
     number of atoms/cell      =            9
     number of atomic types    =            2
     number of electrons       =        48.00
     number of Kohn-Sham states=           36
     kinetic-energy cutoff     =      50.0000  Ry
     charge density cutoff     =     400.0000  Ry
     Exchange-correlation      = SLA PW PBX PBC ( 1  4  3  4 0 0)

     celldm(1)=   9.286114  celldm(2)=   0.000000  celldm(3)=   0.000000
     celldm(4)=   0.000000  celldm(5)=   0.000000  celldm(6)=   0.000000

     crystal axes: (cart. coord. in units of alat)
               a(1) = (   0.866025  -0.500000   0.000000 )  
               a(2) = (   0.000000   1.000000   0.000000 )  
               a(3) = (   0.000000   0.000000   1.100122 )  

     reciprocal axes: (cart. coord. in units 2 pi/alat)
               b(1) = (  1.154701  0.000000  0.000000 )  
               b(2) = (  0.577350  1.000000 -0.000000 )  
               b(3) = ( -0.000000  0.000000  0.908990 )  


     PseudoPot. # 1 for Si read from file:
     ./Si.pbe-n-kjpaw_psl.1.0.0.UPF
     MD5 check sum: c39c59da582df4a0d9f10159256ea34e
     Pseudo is Projector augmented-wave + core cor, Zval =  4.0
     Generated using "atomic" code by A. Dal Corso v.6.3
     Shape of augmentation charge: PSQ
     Using radial grid of 1141 points,  6 beta functions with: 
                l(1) =   0
                l(2) =   0
                l(3) =   1
                l(4) =   1
                l(5) =   2
                l(6) =   2
     Q(r) pseudized with 0 coefficients 


     PseudoPot. # 2 for O  read from file:
     ./O.pbe-n-kjpaw_psl.1.0.0.UPF
     MD5 check sum: e99d9cef9b487d1ca56f5b95ecd0fd7a
     Pseudo is Projector augmented-wave + core cor, Zval =  6.0
     Generated using "atomic" code by A. Dal Corso v.6.3
     Shape of augmentation charge: PSQ
     Using radial grid of 1095 points,  4 beta functions with: 
                l(1) =   0
                l(2) =   0
                l(3) =   1
                l(4) =   1
     Q(r) pseudized with 0 coefficients 


     atomic species   valence    mass     pseudopotential
        Si             4.00    28.08500     Si( 1.00)
        O              6.00    15.99900     O ( 1.00)

      6 Sym. Ops. (no inversion) found ( 4 have fractional translation)



   Cartesian axes

     site n.     atom                  positions (alat units)
         1           Si  tau(   1) = (   0.4069453  -0.2349500   0.3667074  )
         2           Si  tau(   2) = (   0.4590801   0.2650500   0.0000000  )
         3           Si  tau(   3) = (   0.0000000   0.4699000   0.7334147  )
         4           O   tau(   4) = (   0.3576685   0.0603000   0.2354261  )
         5           O   tau(   5) = (   0.5083569   0.5603000   0.1312812  )
         6           O   tau(   6) = (   0.1266129   0.6601000   0.4979886  )
         7           O   tau(   7) = (   0.6349698  -0.2204000   0.6021335  )
         8           O   tau(   8) = (   0.7394125   0.1601000   0.9688409  )
         9           O   tau(   9) = (   0.2310556   0.2796000   0.8646960  )

     number of k points=   221 (tetrahedron method)

     Number of k-points >= 100: set verbosity='high' to print them.

     Dense  grid:   103151 G-vectors     FFT dimensions: (  60,  60,  72)

     Smooth grid:    36345 G-vectors     FFT dimensions: (  45,  45,  45)

     Estimated max dynamical RAM per process >      62.47 MB

     Estimated total dynamical RAM >     374.81 MB

     Check: negative core charge=   -0.000002

     The potential is recalculated from file :
     out_qa/qa.save/charge-density

     Starting wfcs are   36 randomized atomic wfcs
     Checking if some PAW data can be deallocated... 

     Band Structure Calculation
     Davidson diagonalization with overlap
     c_bands:  1 eigenvalues not converged
     c_bands:  1 eigenvalues not converged
     c_bands:  1 eigenvalues not converged
     c_bands:  1 eigenvalues not converged
     c_bands:  1 eigenvalues not converged
     c_bands:  1 eigenvalues not converged
     c_bands:  1 eigenvalues not converged
     c_bands:  1 eigenvalues not converged
     c_bands:  1 eigenvalues not converged
     c_bands:  1 eigenvalues not converged
     c_bands:  1 eigenvalues not converged

     ethr =  2.08E-09,  avg # of iterations = 42.5

     total cpu time spent up to now is      239.2 secs

     End of band structure calculation

     Number of k-points >= 100: set verbosity='high' to print the bands.

     Writing output data file qa.save/

     init_run     :      1.03s CPU      1.09s WALL (       1 calls)
     electrons    :    288.96s CPU    236.98s WALL (       1 calls)

     Called by init_run:
     wfcinit      :      0.00s CPU      0.00s WALL (       1 calls)
     potinit      :      0.34s CPU      0.35s WALL (       1 calls)
     hinit0       :      0.33s CPU      0.34s WALL (       1 calls)

     Called by electrons:
     c_bands      :    288.96s CPU    236.98s WALL (       1 calls)
     v_of_rho     :      0.05s CPU      0.05s WALL (       1 calls)
     newd         :      0.09s CPU      0.11s WALL (       1 calls)
     PAW_pot      :      0.28s CPU      0.28s WALL (       1 calls)

     Called by c_bands:
     init_us_2    :      0.16s CPU      0.17s WALL (     221 calls)
     cegterg      :    276.84s CPU    226.19s WALL (     589 calls)

     Called by sum_band:

     Called by *egterg:
     h_psi        :    153.36s CPU    140.13s WALL (   10211 calls)
     s_psi        :     17.91s CPU      9.13s WALL (   10211 calls)
     g_psi        :      0.49s CPU      0.85s WALL (    9401 calls)
     cdiaghg      :     43.07s CPU     40.59s WALL (    9622 calls)

     Called by h_psi:
     h_psi:pot    :    152.79s CPU    139.48s WALL (   10211 calls)
     h_psi:calbec :     20.73s CPU     12.02s WALL (   10211 calls)
     vloc_psi     :    113.82s CPU    116.53s WALL (   10211 calls)
     add_vuspsi   :     18.18s CPU     10.76s WALL (   10211 calls)

     General routines
     calbec       :     20.69s CPU     11.93s WALL (   10211 calls)
     fft          :      0.04s CPU      0.06s WALL (      13 calls)
     ffts         :      0.00s CPU      0.00s WALL (       1 calls)
     fftw         :     99.79s CPU    102.03s WALL (  265442 calls)
     interpolate  :      0.00s CPU      0.00s WALL (       1 calls)
     davcio       :      0.00s CPU      0.10s WALL (     442 calls)

     Parallel routines
     fft_scatt_xy :     14.31s CPU     14.64s WALL (  265456 calls)
     fft_scatt_yz :     28.18s CPU     28.77s WALL (  265456 calls)

     PWSCF        :   4m51.75s CPU   4m 0.59s WALL


   This run was terminated on:   3:12: 4   7Jul2020            

=------------------------------------------------------------------------------=
   JOB DONE.
=------------------------------------------------------------------------------=
