
     Program PROJWFC v.6.4.1 starts on  7Jul2020 at  2:56: 8 

     This program is part of the open-source Quantum ESPRESSO suite
     for quantum simulation of materials; please cite
         "P. Giannozzi et al., J. Phys.:Condens. Matter 21 395502 (2009);
         "P. Giannozzi et al., J. Phys.:Condens. Matter 29 465901 (2017);
          URL http://www.quantum-espresso.org", 
     in publications or presentations arising from this work. More details at
     http://www.quantum-espresso.org/quote

     Parallel version (MPI), running on     1 processors

     MPI processes distributed on     1 nodes

     Reading data from directory:
     ./out_qa/qa.save/

     IMPORTANT: XC functional enforced from input :
     Exchange-correlation      = PBE ( 1  4  3  4 0 0)
     Any further DFT definition will be discarded
     Please, verify this is what you really want

               file Si.pbe-n-kjpaw_psl.1.0.0.UPF: wavefunction(s)  3S 3P renormalized
               file O.pbe-n-kjpaw_psl.1.0.0.UPF: wavefunction(s)  2S 2P renormalized

     G-vector sticks info
     --------------------
     sticks:   dense  smooth     PW     G-vecs:    dense   smooth      PW
     Sum        2383    1189    349               103151    36345    5725


     Check: negative core charge=   -0.000002

     Linear tetrahedron method (read from file) 
     [opt_tetra]  Linear tetrahedron method is used.

     Calling projwave .... 

     Atomic states used for projection
     (read from pseudopotential files):

     state #   1: atom   1 (Si ), wfc  1 (l=0 m= 1)
     state #   2: atom   1 (Si ), wfc  2 (l=1 m= 1)
     state #   3: atom   1 (Si ), wfc  2 (l=1 m= 2)
     state #   4: atom   1 (Si ), wfc  2 (l=1 m= 3)
     state #   5: atom   2 (Si ), wfc  1 (l=0 m= 1)
     state #   6: atom   2 (Si ), wfc  2 (l=1 m= 1)
     state #   7: atom   2 (Si ), wfc  2 (l=1 m= 2)
     state #   8: atom   2 (Si ), wfc  2 (l=1 m= 3)
     state #   9: atom   3 (Si ), wfc  1 (l=0 m= 1)
     state #  10: atom   3 (Si ), wfc  2 (l=1 m= 1)
     state #  11: atom   3 (Si ), wfc  2 (l=1 m= 2)
     state #  12: atom   3 (Si ), wfc  2 (l=1 m= 3)
     state #  13: atom   4 (O  ), wfc  1 (l=0 m= 1)
     state #  14: atom   4 (O  ), wfc  2 (l=1 m= 1)
     state #  15: atom   4 (O  ), wfc  2 (l=1 m= 2)
     state #  16: atom   4 (O  ), wfc  2 (l=1 m= 3)
     state #  17: atom   5 (O  ), wfc  1 (l=0 m= 1)
     state #  18: atom   5 (O  ), wfc  2 (l=1 m= 1)
     state #  19: atom   5 (O  ), wfc  2 (l=1 m= 2)
     state #  20: atom   5 (O  ), wfc  2 (l=1 m= 3)
     state #  21: atom   6 (O  ), wfc  1 (l=0 m= 1)
     state #  22: atom   6 (O  ), wfc  2 (l=1 m= 1)
     state #  23: atom   6 (O  ), wfc  2 (l=1 m= 2)
     state #  24: atom   6 (O  ), wfc  2 (l=1 m= 3)
     state #  25: atom   7 (O  ), wfc  1 (l=0 m= 1)
     state #  26: atom   7 (O  ), wfc  2 (l=1 m= 1)
     state #  27: atom   7 (O  ), wfc  2 (l=1 m= 2)
     state #  28: atom   7 (O  ), wfc  2 (l=1 m= 3)
     state #  29: atom   8 (O  ), wfc  1 (l=0 m= 1)
     state #  30: atom   8 (O  ), wfc  2 (l=1 m= 1)
     state #  31: atom   8 (O  ), wfc  2 (l=1 m= 2)
     state #  32: atom   8 (O  ), wfc  2 (l=1 m= 3)
     state #  33: atom   9 (O  ), wfc  1 (l=0 m= 1)
     state #  34: atom   9 (O  ), wfc  2 (l=1 m= 1)
     state #  35: atom   9 (O  ), wfc  2 (l=1 m= 2)
     state #  36: atom   9 (O  ), wfc  2 (l=1 m= 3)

 k =   0.2165063509  0.1250000000  0.1136237514
==== e(   1) =   -16.75705 eV ==== 
     psi = 0.110*[#  13]+0.110*[#  17]+0.110*[#  21]+0.110*[#  25]+0.110*[#  29]+
          +0.110*[#  33]+0.093*[#   1]+0.093*[#   5]+0.093*[#   9]+0.008*[#  11]+
          +0.007*[#   4]+0.007*[#   8]+0.004*[#   3]+0.004*[#   7]+0.003*[#  12]+
          +0.003*[#   2]+0.003*[#   6]+0.003*[#  10]+0.002*[#  28]+0.002*[#  36]+
          +0.002*[#  23]+0.002*[#  31]+0.001*[#  15]+0.001*[#  19]+
    |psi|^2 = 0.994
==== e(   2) =   -15.70120 eV ==== 
     psi = 0.118*[#  13]+0.118*[#  17]+0.118*[#  21]+0.118*[#  25]+0.118*[#  29]+
          +0.118*[#  33]+0.044*[#   1]+0.044*[#   5]+0.044*[#   9]+0.030*[#   2]+
          +0.030*[#   6]+0.030*[#  10]+0.006*[#   3]+0.006*[#   4]+0.006*[#   7]+
          +0.006*[#  12]+0.006*[#   8]+0.006*[#  11]+0.002*[#  23]+0.002*[#  31]+
          +0.002*[#  16]+0.002*[#  20]+0.001*[#  14]+0.001*[#  18]+0.001*[#  22]+
          +0.001*[#  26]+0.001*[#  28]+0.001*[#  30]+0.001*[#  34]+0.001*[#  36]+
          +0.001*[#  27]+0.001*[#  35]+
    |psi|^2 = 0.994
==== e(   3) =   -15.24554 eV ==== 
     psi = 0.124*[#  13]+0.124*[#  17]+0.124*[#  21]+0.124*[#  25]+0.124*[#  29]+
          +0.124*[#  33]+0.030*[#   2]+0.030*[#   6]+0.030*[#  10]+0.024*[#   1]+
          +0.024*[#   5]+0.024*[#   9]+0.012*[#  12]+0.011*[#   3]+0.011*[#   7]+
          +0.011*[#   4]+0.011*[#   8]+0.011*[#  11]+0.001*[#  16]+0.001*[#  20]+
          +0.001*[#  23]+0.001*[#  31]+0.001*[#  28]+0.001*[#  36]+
    |psi|^2 = 0.994
==== e(   4) =   -14.77812 eV ==== 
     psi = 0.132*[#  13]+0.132*[#  17]+0.132*[#  21]+0.132*[#  25]+0.132*[#  29]+
          +0.132*[#  33]+0.032*[#  11]+0.027*[#   4]+0.027*[#   8]+0.022*[#   2]+
          +0.022*[#   6]+0.022*[#  10]+0.016*[#   3]+0.016*[#   7]+0.011*[#  12]+
          +0.001*[#  28]+0.001*[#  36]+
    |psi|^2 = 0.993
==== e(   5) =   -14.74553 eV ==== 
     psi = 0.133*[#  13]+0.133*[#  17]+0.133*[#  21]+0.133*[#  25]+0.133*[#  29]+
          +0.133*[#  33]+0.032*[#  12]+0.029*[#   3]+0.029*[#   7]+0.024*[#   4]+
          +0.024*[#   8]+0.021*[#  11]+0.011*[#   2]+0.011*[#   6]+0.011*[#  10]+
    |psi|^2 = 0.993
==== e(   6) =   -14.72062 eV ==== 
     psi = 0.134*[#  13]+0.134*[#  17]+0.134*[#  21]+0.134*[#  25]+0.134*[#  29]+
          +0.134*[#  33]+0.035*[#  12]+0.031*[#   3]+0.031*[#   7]+0.024*[#   4]+
          +0.024*[#   8]+0.020*[#  11]+0.007*[#   2]+0.007*[#   6]+0.007*[#  10]+
    |psi|^2 = 0.993
==== e(   7) =    -5.99963 eV ==== 
     psi = 0.079*[#   1]+0.079*[#   5]+0.079*[#   9]+0.076*[#  16]+0.076*[#  20]+
          +0.065*[#  27]+0.065*[#  35]+0.050*[#  23]+0.050*[#  31]+0.038*[#  14]+
          +0.038*[#  18]+0.038*[#  22]+0.038*[#  26]+0.038*[#  30]+0.038*[#  34]+
          +0.027*[#  24]+0.027*[#  32]+0.013*[#  28]+0.013*[#  36]+0.006*[#   2]+
          +0.006*[#   6]+0.006*[#  10]+0.005*[#  13]+0.005*[#  17]+0.005*[#  21]+
          +0.005*[#  25]+0.005*[#  29]+0.005*[#  33]+0.004*[#  12]+0.003*[#   3]+
          +0.003*[#   7]+0.002*[#   4]+0.002*[#   8]+0.002*[#  11]+0.001*[#  15]+
          +0.001*[#  19]+
    |psi|^2 = 0.993
==== e(   8) =    -5.14685 eV ==== 
     psi = 0.080*[#  16]+0.080*[#  20]+0.067*[#  27]+0.067*[#  35]+0.061*[#   1]+
          +0.061*[#   5]+0.061*[#   9]+0.054*[#  23]+0.054*[#  31]+0.036*[#  14]+
          +0.036*[#  18]+0.036*[#  22]+0.036*[#  26]+0.036*[#  30]+0.036*[#  34]+
          +0.028*[#  24]+0.028*[#  32]+0.015*[#  28]+0.015*[#  36]+0.012*[#   2]+
          +0.012*[#   6]+0.012*[#  10]+0.007*[#  13]+0.007*[#  17]+0.007*[#  21]+
          +0.007*[#  25]+0.007*[#  29]+0.007*[#  33]+0.006*[#  12]+0.005*[#   3]+
          +0.005*[#   7]+0.004*[#   4]+0.004*[#   8]+0.003*[#  11]+0.001*[#  15]+
          +0.001*[#  19]+
    |psi|^2 = 0.991
==== e(   9) =    -3.16618 eV ==== 
     psi = 0.072*[#  16]+0.072*[#  20]+0.059*[#  27]+0.059*[#  35]+0.054*[#  23]+
          +0.054*[#  31]+0.043*[#  14]+0.043*[#  18]+0.043*[#  22]+0.043*[#  26]+
          +0.043*[#  30]+0.043*[#  34]+0.028*[#  24]+0.028*[#  32]+0.024*[#  12]+
          +0.024*[#  28]+0.024*[#  36]+0.023*[#   3]+0.023*[#   7]+0.021*[#   2]+
          +0.021*[#   6]+0.021*[#  10]+0.021*[#   4]+0.021*[#   8]+0.020*[#  11]+
          +0.010*[#  15]+0.010*[#  19]+0.010*[#   1]+0.010*[#   5]+0.010*[#   9]+
          +0.002*[#  13]+0.002*[#  17]+0.002*[#  21]+0.002*[#  25]+0.002*[#  29]+
          +0.002*[#  33]+
    |psi|^2 = 0.987
==== e(  10) =    -2.90131 eV ==== 
     psi = 0.071*[#  16]+0.071*[#  20]+0.060*[#  27]+0.060*[#  35]+0.051*[#  12]+
          +0.051*[#  14]+0.051*[#  18]+0.051*[#  22]+0.051*[#  26]+0.051*[#  30]+
          +0.051*[#  34]+0.049*[#  23]+0.049*[#  31]+0.040*[#   3]+0.040*[#   7]+
          +0.028*[#  24]+0.028*[#  32]+0.018*[#   4]+0.018*[#   8]+0.017*[#  28]+
          +0.017*[#  36]+0.012*[#   2]+0.012*[#   6]+0.012*[#  10]+0.007*[#  11]+
          +0.007*[#  15]+0.007*[#  19]+
    |psi|^2 = 0.987
==== e(  11) =    -2.69606 eV ==== 
     psi = 0.085*[#  16]+0.085*[#  20]+0.065*[#  23]+0.065*[#  31]+0.065*[#  27]+
          +0.065*[#  35]+0.037*[#  14]+0.037*[#  18]+0.037*[#  22]+0.037*[#  26]+
          +0.037*[#  30]+0.037*[#  34]+0.032*[#   2]+0.032*[#   6]+0.032*[#  10]+
          +0.026*[#  28]+0.026*[#  36]+0.026*[#  24]+0.026*[#  32]+0.020*[#  11]+
          +0.019*[#   4]+0.019*[#   8]+0.018*[#   3]+0.018*[#   7]+0.017*[#  12]+
          +0.006*[#  15]+0.006*[#  19]+0.002*[#   1]+0.002*[#   5]+0.002*[#   9]+
          +0.001*[#  13]+0.001*[#  17]+0.001*[#  21]+0.001*[#  25]+0.001*[#  29]+
          +0.001*[#  33]+
    |psi|^2 = 0.988
==== e(  12) =    -2.45983 eV ==== 
     psi = 0.063*[#  16]+0.063*[#  20]+0.058*[#  14]+0.058*[#  18]+0.058*[#  22]+
          +0.058*[#  26]+0.058*[#  30]+0.058*[#  34]+0.057*[#  27]+0.057*[#  35]+
          +0.041*[#  23]+0.041*[#  31]+0.035*[#  11]+0.031*[#  24]+0.031*[#  32]+
          +0.029*[#   4]+0.029*[#   8]+0.018*[#   2]+0.018*[#   6]+0.018*[#  10]+
          +0.018*[#   3]+0.018*[#   7]+0.014*[#  28]+0.014*[#  36]+0.012*[#  12]+
          +0.009*[#  15]+0.009*[#  19]+0.002*[#   1]+0.002*[#   5]+0.002*[#   9]+
          +0.001*[#  13]+0.001*[#  17]+0.001*[#  21]+0.001*[#  25]+0.001*[#  29]+
          +0.001*[#  33]+
    |psi|^2 = 0.988
==== e(  13) =    -0.61000 eV ==== 
     psi = 0.068*[#  14]+0.068*[#  18]+0.068*[#  22]+0.068*[#  26]+0.068*[#  30]+
          +0.068*[#  34]+0.042*[#  28]+0.042*[#  36]+0.040*[#  15]+0.040*[#  19]+
          +0.036*[#  23]+0.036*[#  31]+0.033*[#  24]+0.033*[#  32]+0.029*[#  16]+
          +0.029*[#  20]+0.028*[#  27]+0.028*[#  35]+0.022*[#  11]+0.017*[#   4]+
          +0.017*[#   8]+0.016*[#   2]+0.016*[#   6]+0.016*[#  10]+0.007*[#  13]+
          +0.007*[#  17]+0.007*[#  21]+0.007*[#  25]+0.007*[#  29]+0.007*[#  33]+
          +0.006*[#   3]+0.006*[#   7]+
    |psi|^2 = 0.984
==== e(  14) =    -0.28887 eV ==== 
     psi = 0.066*[#  14]+0.066*[#  18]+0.066*[#  22]+0.066*[#  26]+0.066*[#  30]+
          +0.066*[#  34]+0.055*[#  15]+0.055*[#  19]+0.051*[#  24]+0.051*[#  32]+
          +0.046*[#  28]+0.046*[#  36]+0.038*[#  27]+0.038*[#  35]+0.033*[#  23]+
          +0.033*[#  31]+0.029*[#  16]+0.029*[#  20]+0.009*[#  11]+0.008*[#   4]+
          +0.008*[#   8]+0.005*[#   2]+0.005*[#   6]+0.005*[#  10]+0.005*[#   3]+
          +0.005*[#   7]+0.004*[#  13]+0.004*[#  17]+0.004*[#  21]+0.004*[#  25]+
          +0.004*[#  29]+0.004*[#  33]+0.004*[#  12]+
    |psi|^2 = 0.978
==== e(  15) =    -0.08991 eV ==== 
     psi = 0.094*[#  15]+0.094*[#  19]+0.088*[#  28]+0.088*[#  36]+0.064*[#  24]+
          +0.064*[#  32]+0.053*[#  23]+0.053*[#  31]+0.036*[#  14]+0.036*[#  18]+
          +0.036*[#  22]+0.036*[#  26]+0.036*[#  30]+0.036*[#  34]+0.029*[#  27]+
          +0.029*[#  35]+0.024*[#  16]+0.024*[#  20]+0.005*[#  13]+0.005*[#  17]+
          +0.005*[#  21]+0.005*[#  25]+0.005*[#  29]+0.005*[#  33]+0.005*[#   2]+
          +0.005*[#   6]+0.005*[#  10]+0.002*[#   1]+0.002*[#   5]+0.002*[#   9]+
          +0.001*[#  11]+
    |psi|^2 = 0.976
==== e(  16) =     0.26795 eV ==== 
     psi = 0.095*[#  15]+0.095*[#  19]+0.077*[#  28]+0.077*[#  36]+0.073*[#  24]+
          +0.073*[#  32]+0.037*[#  23]+0.037*[#  31]+0.035*[#  14]+0.035*[#  18]+
          +0.035*[#  22]+0.035*[#  26]+0.035*[#  30]+0.035*[#  34]+0.033*[#  27]+
          +0.033*[#  35]+0.015*[#  16]+0.015*[#  20]+0.015*[#  11]+0.012*[#   4]+
          +0.012*[#   8]+0.007*[#   3]+0.007*[#   7]+0.006*[#  13]+0.006*[#  17]+
          +0.006*[#  21]+0.006*[#  25]+0.006*[#  29]+0.006*[#  33]+0.004*[#  12]+
          +0.003*[#   2]+0.003*[#   6]+0.003*[#  10]+
    |psi|^2 = 0.981
==== e(  17) =     0.55705 eV ==== 
     psi = 0.081*[#  15]+0.081*[#  19]+0.076*[#  28]+0.076*[#  36]+0.067*[#  24]+
          +0.067*[#  32]+0.058*[#  23]+0.058*[#  31]+0.049*[#  27]+0.049*[#  35]+
          +0.044*[#  16]+0.044*[#  20]+0.024*[#  14]+0.024*[#  18]+0.024*[#  22]+
          +0.024*[#  26]+0.024*[#  30]+0.024*[#  34]+0.007*[#   2]+0.007*[#   6]+
          +0.007*[#  10]+0.007*[#  12]+0.007*[#   3]+0.007*[#   7]+0.006*[#   4]+
          +0.006*[#   8]+0.006*[#  11]+0.004*[#  13]+0.004*[#  17]+0.004*[#  21]+
          +0.004*[#  25]+0.004*[#  29]+0.004*[#  33]+
    |psi|^2 = 0.979
==== e(  18) =     0.99054 eV ==== 
     psi = 0.058*[#  14]+0.058*[#  18]+0.058*[#  22]+0.058*[#  26]+0.058*[#  30]+
          +0.058*[#  34]+0.055*[#  15]+0.055*[#  19]+0.053*[#  24]+0.053*[#  32]+
          +0.051*[#  28]+0.051*[#  36]+0.047*[#  27]+0.047*[#  35]+0.044*[#  23]+
          +0.044*[#  31]+0.042*[#  16]+0.042*[#  20]+0.005*[#   2]+0.005*[#   6]+
          +0.005*[#  10]+0.004*[#   4]+0.004*[#   8]+0.004*[#  11]+0.004*[#   3]+
          +0.004*[#   7]+0.004*[#  12]+0.002*[#  13]+0.002*[#  17]+0.002*[#  21]+
          +0.002*[#  25]+0.002*[#  29]+0.002*[#  33]+
    |psi|^2 = 0.980
==== e(  19) =     1.03794 eV ==== 
     psi = 0.075*[#  15]+0.075*[#  19]+0.074*[#  24]+0.074*[#  32]+0.053*[#  28]+
          +0.053*[#  36]+0.053*[#  14]+0.053*[#  18]+0.053*[#  22]+0.053*[#  26]+
          +0.053*[#  30]+0.053*[#  34]+0.050*[#  27]+0.050*[#  35]+0.030*[#  23]+
          +0.030*[#  31]+0.029*[#  16]+0.029*[#  20]+0.006*[#  12]+0.005*[#   3]+
          +0.005*[#   7]+0.004*[#   2]+0.004*[#   6]+0.004*[#  10]+0.003*[#   4]+
          +0.003*[#   8]+0.001*[#  11]+
    |psi|^2 = 0.979
==== e(  20) =     1.30373 eV ==== 
     psi = 0.104*[#  28]+0.104*[#  36]+0.101*[#  15]+0.101*[#  19]+0.063*[#  23]+
          +0.063*[#  31]+0.057*[#  24]+0.057*[#  32]+0.040*[#  14]+0.040*[#  18]+
          +0.040*[#  22]+0.040*[#  26]+0.040*[#  30]+0.040*[#  34]+0.019*[#  16]+
          +0.019*[#  20]+0.016*[#  27]+0.016*[#  35]+0.002*[#   2]+0.002*[#   6]+
          +0.002*[#  10]+0.002*[#  11]+0.002*[#   4]+0.002*[#   8]+0.002*[#   3]+
          +0.002*[#   7]+0.002*[#  13]+0.002*[#  17]+0.002*[#  21]+0.002*[#  25]+
          +0.002*[#  29]+0.002*[#  33]+0.001*[#  12]+
    |psi|^2 = 0.981
==== e(  21) =     1.61596 eV ==== 
     psi = 0.099*[#  28]+0.099*[#  36]+0.080*[#  15]+0.080*[#  19]+0.077*[#  23]+
          +0.077*[#  31]+0.041*[#  14]+0.041*[#  18]+0.041*[#  22]+0.041*[#  26]+
          +0.041*[#  30]+0.041*[#  34]+0.040*[#  24]+0.040*[#  32]+0.036*[#  16]+
          +0.036*[#  20]+0.018*[#  27]+0.018*[#  35]+0.003*[#  13]+0.003*[#  17]+
          +0.003*[#  21]+0.003*[#  25]+0.003*[#  29]+0.003*[#  33]+0.003*[#   2]+
          +0.003*[#   6]+0.003*[#  10]+0.003*[#  12]+0.002*[#   3]+0.002*[#   7]+
          +0.002*[#   4]+0.002*[#   8]+0.002*[#  11]+
    |psi|^2 = 0.986
==== e(  22) =     1.73254 eV ==== 
     psi = 0.058*[#  16]+0.058*[#  20]+0.058*[#  23]+0.058*[#  31]+0.057*[#  27]+
          +0.057*[#  35]+0.056*[#  28]+0.056*[#  36]+0.055*[#  24]+0.055*[#  32]+
          +0.054*[#  15]+0.054*[#  19]+0.048*[#  14]+0.048*[#  18]+0.048*[#  22]+
          +0.048*[#  26]+0.048*[#  30]+0.048*[#  34]+0.003*[#  12]+0.002*[#   3]+
          +0.002*[#   7]+0.002*[#  13]+0.002*[#  17]+0.002*[#  21]+0.002*[#  25]+
          +0.002*[#  29]+0.002*[#  33]+0.001*[#   2]+0.001*[#   6]+0.001*[#  10]+
          +0.001*[#   4]+0.001*[#   8]+
    |psi|^2 = 0.985
==== e(  23) =     2.18434 eV ==== 
     psi = 0.078*[#  24]+0.078*[#  32]+0.068*[#  14]+0.068*[#  18]+0.068*[#  22]+
          +0.068*[#  26]+0.068*[#  30]+0.068*[#  34]+0.064*[#  15]+0.064*[#  19]+
          +0.061*[#  27]+0.061*[#  35]+0.033*[#  28]+0.033*[#  36]+0.030*[#  16]+
          +0.030*[#  20]+0.016*[#  23]+0.016*[#  31]+0.002*[#  11]+0.002*[#   4]+
          +0.002*[#   8]+0.002*[#   3]+0.002*[#   7]+0.002*[#  12]+
    |psi|^2 = 0.988
==== e(  24) =     2.43635 eV ==== 
     psi = 0.069*[#  15]+0.069*[#  19]+0.068*[#  24]+0.068*[#  32]+0.065*[#  14]+
          +0.065*[#  18]+0.065*[#  22]+0.065*[#  26]+0.065*[#  30]+0.065*[#  34]+
          +0.051*[#  28]+0.051*[#  36]+0.048*[#  27]+0.048*[#  35]+0.031*[#  23]+
          +0.031*[#  31]+0.030*[#  16]+0.030*[#  20]+
    |psi|^2 = 0.992
==== e(  25) =     9.34545 eV ==== 
     psi = 0.144*[#   1]+0.144*[#   5]+0.144*[#   9]+0.037*[#  13]+0.037*[#  17]+
          +0.037*[#  21]+0.037*[#  25]+0.037*[#  29]+0.037*[#  33]+0.027*[#  11]+
          +0.025*[#   4]+0.025*[#   8]+0.021*[#   3]+0.021*[#   7]+0.019*[#  12]+
          +0.009*[#   2]+0.009*[#   6]+0.009*[#  10]+0.006*[#  28]+0.006*[#  36]+
          +0.005*[#  15]+0.005*[#  19]+0.004*[#  23]+0.004*[#  31]+0.004*[#  24]+
          +0.004*[#  32]+0.003*[#  16]+0.003*[#  20]+0.003*[#  27]+0.003*[#  35]+
          +0.002*[#  14]+0.002*[#  18]+0.002*[#  22]+0.002*[#  26]+0.002*[#  30]+
          +0.002*[#  34]+
    |psi|^2 = 0.882
==== e(  26) =    11.75591 eV ==== 
     psi = 0.083*[#  11]+0.082*[#   4]+0.082*[#   8]+0.080*[#   3]+0.080*[#   7]+
          +0.079*[#  12]+0.022*[#   2]+0.022*[#   6]+0.022*[#  10]+0.022*[#  13]+
          +0.022*[#  17]+0.022*[#  21]+0.022*[#  25]+0.022*[#  29]+0.022*[#  33]+
          +0.019*[#   1]+0.019*[#   5]+0.019*[#   9]+0.005*[#  14]+0.005*[#  18]+
          +0.005*[#  22]+0.005*[#  26]+0.005*[#  30]+0.005*[#  34]+0.002*[#  15]+
          +0.002*[#  19]+0.002*[#  24]+0.002*[#  32]+0.001*[#  28]+0.001*[#  36]+
          +0.001*[#  27]+0.001*[#  35]+
    |psi|^2 = 0.782
==== e(  27) =    12.02203 eV ==== 
     psi = 0.065*[#  11]+0.065*[#   2]+0.065*[#   6]+0.065*[#  10]+0.060*[#   4]+
          +0.060*[#   8]+0.049*[#   3]+0.049*[#   7]+0.044*[#  12]+0.021*[#   1]+
          +0.021*[#   5]+0.021*[#   9]+0.018*[#  13]+0.018*[#  17]+0.018*[#  21]+
          +0.018*[#  25]+0.018*[#  29]+0.018*[#  33]+0.006*[#  14]+0.006*[#  18]+
          +0.006*[#  22]+0.006*[#  26]+0.006*[#  30]+0.006*[#  34]+0.002*[#  27]+
          +0.002*[#  35]+0.002*[#  16]+0.002*[#  20]+0.002*[#  24]+0.002*[#  32]+
          +0.001*[#  15]+0.001*[#  19]+0.001*[#  23]+0.001*[#  31]+
    |psi|^2 = 0.744
==== e(  28) =    12.25798 eV ==== 
     psi = 0.136*[#   2]+0.136*[#   6]+0.136*[#  10]+0.030*[#  12]+0.028*[#   3]+
          +0.028*[#   7]+0.023*[#   4]+0.023*[#   8]+0.021*[#  11]+0.020*[#  13]+
          +0.020*[#  17]+0.020*[#  21]+0.020*[#  25]+0.020*[#  29]+0.020*[#  33]+
          +0.009*[#   1]+0.009*[#   5]+0.009*[#   9]+0.006*[#  23]+0.006*[#  31]+
          +0.005*[#  16]+0.005*[#  20]+0.005*[#  28]+0.005*[#  36]+0.005*[#  14]+
          +0.005*[#  18]+0.005*[#  22]+0.005*[#  26]+0.005*[#  30]+0.005*[#  34]+
          +0.004*[#  27]+0.004*[#  35]+0.003*[#  15]+0.003*[#  19]+0.003*[#  24]+
          +0.003*[#  32]+
    |psi|^2 = 0.789
==== e(  29) =    12.62278 eV ==== 
     psi = 0.110*[#   2]+0.110*[#   6]+0.110*[#  10]+0.064*[#  12]+0.053*[#   3]+
          +0.053*[#   7]+0.029*[#   4]+0.029*[#   8]+0.020*[#  13]+0.020*[#  17]+
          +0.020*[#  21]+0.020*[#  25]+0.020*[#  29]+0.020*[#  33]+0.018*[#  11]+
          +0.007*[#  14]+0.007*[#  18]+0.007*[#  22]+0.007*[#  26]+0.007*[#  30]+
          +0.007*[#  34]+0.006*[#  28]+0.006*[#  36]+0.006*[#  23]+0.006*[#  31]+
          +0.005*[#  15]+0.005*[#  19]+0.004*[#  16]+0.004*[#  20]+0.004*[#  24]+
          +0.004*[#  32]+0.003*[#  27]+0.003*[#  35]+0.002*[#   1]+0.002*[#   5]+
          +0.002*[#   9]+
    |psi|^2 = 0.795

 k =   0.2165063509  0.1250000000  0.3408712542
==== e(   1) =   -16.54738 eV ==== 
     psi = 0.110*[#  13]+0.110*[#  17]+0.110*[#  21]+0.110*[#  25]+0.110*[#  29]+
          +0.110*[#  33]+0.081*[#   1]+0.081*[#   5]+0.081*[#   9]+0.015*[#   2]+
          +0.015*[#   6]+0.015*[#  10]+0.004*[#  11]+0.004*[#   4]+0.004*[#   8]+
          +0.003*[#   3]+0.003*[#   7]+0.003*[#  12]+0.002*[#  23]+0.002*[#  28]+
          +0.002*[#  31]+0.002*[#  36]+0.001*[#  15]+0.001*[#  16]+0.001*[#  19]+
          +0.001*[#  14]+0.001*[#  18]+0.001*[#  20]+0.001*[#  22]+0.001*[#  26]+
          +0.001*[#  30]+0.001*[#  34]+
    |psi|^2 = 0.994
==== e(   2) =   -16.15116 eV ==== 
     psi = 0.113*[#  13]+0.113*[#  17]+0.113*[#  21]+0.113*[#  25]+0.113*[#  29]+
          +0.113*[#  33]+0.063*[#   1]+0.063*[#   5]+0.063*[#   9]+0.026*[#   2]+
          +0.026*[#   6]+0.026*[#  10]+0.004*[#  12]+0.004*[#   3]+0.004*[#   7]+
          +0.004*[#   4]+0.004*[#   8]+0.004*[#  11]+0.002*[#  23]+0.002*[#  31]+
          +0.002*[#  16]+0.002*[#  20]+0.002*[#  28]+0.002*[#  36]+0.001*[#  14]+
          +0.001*[#  18]+0.001*[#  22]+0.001*[#  26]+0.001*[#  30]+0.001*[#  34]+
          +0.001*[#  15]+0.001*[#  19]+0.001*[#  27]+0.001*[#  35]+
    |psi|^2 = 0.994
==== e(   3) =   -14.99592 eV ==== 
     psi = 0.128*[#  13]+0.128*[#  17]+0.128*[#  21]+0.128*[#  25]+0.128*[#  29]+
          +0.128*[#  33]+0.034*[#  11]+0.028*[#   4]+0.028*[#   8]+0.018*[#   3]+
          +0.018*[#   7]+0.013*[#  12]+0.013*[#   2]+0.013*[#   6]+0.013*[#  10]+
          +0.012*[#   1]+0.012*[#   5]+0.012*[#   9]+0.001*[#  23]+0.001*[#  31]+
          +0.001*[#  28]+0.001*[#  36]+0.001*[#  16]+0.001*[#  20]+
    |psi|^2 = 0.993
==== e(   4) =   -14.77547 eV ==== 
     psi = 0.132*[#  13]+0.132*[#  17]+0.132*[#  21]+0.132*[#  25]+0.132*[#  29]+
          +0.132*[#  33]+0.033*[#   2]+0.033*[#   6]+0.033*[#  10]+0.026*[#  11]+
          +0.021*[#   4]+0.021*[#   8]+0.011*[#   3]+0.011*[#   7]+0.006*[#  12]+
    |psi|^2 = 0.993
==== e(   5) =   -14.74647 eV ==== 
     psi = 0.133*[#  13]+0.133*[#  17]+0.133*[#  21]+0.133*[#  25]+0.133*[#  29]+
          +0.133*[#  33]+0.025*[#  11]+0.023*[#   4]+0.023*[#   8]+0.021*[#   3]+
          +0.021*[#   7]+0.020*[#   2]+0.020*[#   6]+0.020*[#  10]+0.019*[#  12]+
    |psi|^2 = 0.993
==== e(   6) =   -14.72115 eV ==== 
     psi = 0.133*[#  13]+0.133*[#  17]+0.133*[#  21]+0.133*[#  25]+0.133*[#  29]+
          +0.133*[#  33]+0.053*[#  12]+0.041*[#   3]+0.041*[#   7]+0.017*[#   4]+
          +0.017*[#   8]+0.006*[#   2]+0.006*[#   6]+0.006*[#  10]+0.004*[#  11]+
    |psi|^2 = 0.993
==== e(   7) =    -6.42135 eV ==== 
     psi = 0.091*[#   1]+0.091*[#   5]+0.091*[#   9]+0.075*[#  16]+0.075*[#  20]+
          +0.064*[#  27]+0.064*[#  35]+0.049*[#  23]+0.049*[#  31]+0.039*[#  14]+
          +0.039*[#  18]+0.039*[#  22]+0.039*[#  26]+0.039*[#  30]+0.039*[#  34]+
          +0.027*[#  24]+0.027*[#  32]+0.012*[#  28]+0.012*[#  36]+0.003*[#  13]+
          +0.003*[#  17]+0.003*[#  21]+0.003*[#  25]+0.003*[#  29]+0.003*[#  33]+
          +0.002*[#   3]+0.002*[#   7]+0.002*[#  12]+0.002*[#   2]+0.002*[#   4]+
          +0.002*[#   6]+0.002*[#   8]+0.002*[#  10]+0.002*[#  11]+0.001*[#  15]+
          +0.001*[#  19]+
    |psi|^2 = 0.994
==== e(   8) =    -4.32401 eV ==== 
     psi = 0.087*[#  16]+0.087*[#  20]+0.071*[#  27]+0.071*[#  35]+0.061*[#  23]+
          +0.061*[#  31]+0.042*[#   1]+0.042*[#   5]+0.042*[#   9]+0.032*[#  14]+
          +0.032*[#  18]+0.032*[#  22]+0.032*[#  26]+0.032*[#  30]+0.032*[#  34]+
          +0.028*[#  24]+0.028*[#  32]+0.019*[#   2]+0.019*[#   6]+0.019*[#  10]+
          +0.019*[#  28]+0.019*[#  36]+0.011*[#  12]+0.009*[#   3]+0.009*[#   7]+
          +0.006*[#   4]+0.006*[#   8]+0.006*[#  13]+0.006*[#  17]+0.006*[#  21]+
          +0.006*[#  25]+0.006*[#  29]+0.006*[#  33]+0.005*[#  11]+0.002*[#  15]+
          +0.002*[#  19]+
    |psi|^2 = 0.989
==== e(   9) =    -3.62527 eV ==== 
     psi = 0.083*[#  16]+0.083*[#  20]+0.065*[#  27]+0.065*[#  35]+0.063*[#  23]+
          +0.063*[#  31]+0.034*[#  14]+0.034*[#  18]+0.034*[#  22]+0.034*[#  26]+
          +0.034*[#  30]+0.034*[#  34]+0.026*[#  24]+0.026*[#  32]+0.024*[#  28]+
          +0.024*[#  36]+0.023*[#  12]+0.022*[#   1]+0.022*[#   5]+0.022*[#   9]+
          +0.020*[#   2]+0.020*[#   3]+0.020*[#   6]+0.020*[#   7]+0.020*[#  10]+
          +0.014*[#   4]+0.014*[#   8]+0.011*[#  11]+0.006*[#  15]+0.006*[#  19]+
          +0.003*[#  13]+0.003*[#  17]+0.003*[#  21]+0.003*[#  25]+0.003*[#  29]+
          +0.003*[#  33]+
    |psi|^2 = 0.987
==== e(  10) =    -2.92705 eV ==== 
     psi = 0.062*[#  16]+0.062*[#  20]+0.056*[#  27]+0.056*[#  35]+0.053*[#  14]+
          +0.053*[#  18]+0.053*[#  22]+0.053*[#  26]+0.053*[#  30]+0.053*[#  34]+
          +0.047*[#  12]+0.044*[#  23]+0.044*[#  31]+0.039*[#   3]+0.039*[#   7]+
          +0.031*[#  24]+0.031*[#  32]+0.024*[#   4]+0.024*[#   8]+0.019*[#  28]+
          +0.019*[#  36]+0.016*[#  11]+0.013*[#  15]+0.013*[#  19]+0.010*[#   2]+
          +0.010*[#   6]+0.010*[#  10]+
    |psi|^2 = 0.987
==== e(  11) =    -2.78067 eV ==== 
     psi = 0.075*[#  16]+0.075*[#  20]+0.064*[#  27]+0.064*[#  35]+0.055*[#  23]+
          +0.055*[#  31]+0.041*[#  14]+0.041*[#  18]+0.041*[#  22]+0.041*[#  26]+
          +0.041*[#  30]+0.041*[#  34]+0.032*[#  24]+0.032*[#  32]+0.025*[#  12]+
          +0.024*[#   3]+0.024*[#   7]+0.024*[#   2]+0.024*[#   6]+0.024*[#  10]+
          +0.023*[#   4]+0.023*[#   8]+0.023*[#  28]+0.023*[#  36]+0.022*[#  11]+
          +0.011*[#  15]+0.011*[#  19]+0.001*[#   1]+0.001*[#   5]+0.001*[#   9]+
    |psi|^2 = 0.988
==== e(  12) =    -2.24641 eV ==== 
     psi = 0.067*[#  16]+0.067*[#  20]+0.063*[#  14]+0.063*[#  18]+0.063*[#  22]+
          +0.063*[#  26]+0.063*[#  30]+0.063*[#  34]+0.058*[#  27]+0.058*[#  35]+
          +0.044*[#  23]+0.044*[#  31]+0.037*[#  11]+0.028*[#   4]+0.028*[#   8]+
          +0.026*[#  24]+0.026*[#  32]+0.021*[#   2]+0.021*[#   6]+0.021*[#  10]+
          +0.012*[#  28]+0.012*[#  36]+0.011*[#   3]+0.011*[#   7]+0.003*[#  15]+
          +0.003*[#  19]+0.003*[#  12]+0.001*[#  13]+0.001*[#  17]+0.001*[#  21]+
          +0.001*[#  25]+0.001*[#  29]+0.001*[#  33]+
    |psi|^2 = 0.987
==== e(  13) =    -0.56713 eV ==== 
     psi = 0.077*[#  14]+0.077*[#  18]+0.077*[#  22]+0.077*[#  26]+0.077*[#  30]+
          +0.077*[#  34]+0.040*[#  28]+0.040*[#  36]+0.039*[#  15]+0.039*[#  19]+
          +0.031*[#  23]+0.031*[#  31]+0.027*[#  24]+0.027*[#  32]+0.019*[#  16]+
          +0.019*[#  20]+0.019*[#   2]+0.019*[#   6]+0.019*[#  10]+0.018*[#  11]+
          +0.017*[#  27]+0.017*[#  35]+0.014*[#   4]+0.014*[#   8]+0.009*[#  13]+
          +0.009*[#  17]+0.009*[#  21]+0.009*[#  25]+0.009*[#  29]+0.009*[#  33]+
          +0.006*[#   3]+0.006*[#   7]+0.002*[#  12]+0.001*[#   1]+0.001*[#   5]+
          +0.001*[#   9]+
    |psi|^2 = 0.982
==== e(  14) =    -0.25078 eV ==== 
     psi = 0.066*[#  15]+0.066*[#  19]+0.058*[#  14]+0.058*[#  18]+0.058*[#  22]+
          +0.058*[#  26]+0.058*[#  30]+0.058*[#  34]+0.056*[#  28]+0.056*[#  36]+
          +0.050*[#  24]+0.050*[#  32]+0.030*[#  23]+0.030*[#  31]+0.024*[#  27]+
          +0.024*[#  35]+0.014*[#  16]+0.014*[#  20]+0.013*[#  11]+0.011*[#   4]+
          +0.011*[#   8]+0.010*[#  13]+0.010*[#  17]+0.010*[#  21]+0.010*[#  25]+
          +0.010*[#  29]+0.010*[#  33]+0.010*[#   2]+0.010*[#   6]+0.010*[#  10]+
          +0.006*[#   3]+0.006*[#   7]+0.004*[#  12]+0.003*[#   1]+0.003*[#   5]+
          +0.003*[#   9]+
    |psi|^2 = 0.980
==== e(  15) =    -0.03308 eV ==== 
     psi = 0.088*[#  14]+0.088*[#  18]+0.088*[#  22]+0.088*[#  26]+0.088*[#  30]+
          +0.088*[#  34]+0.053*[#  27]+0.053*[#  35]+0.044*[#  16]+0.044*[#  20]+
          +0.042*[#  24]+0.042*[#  32]+0.023*[#  23]+0.023*[#  31]+0.021*[#  15]+
          +0.021*[#  19]+0.012*[#  28]+0.012*[#  36]+0.008*[#  12]+0.007*[#   3]+
          +0.007*[#   7]+0.004*[#   4]+0.004*[#   8]+0.003*[#  13]+0.003*[#  17]+
          +0.003*[#  21]+0.003*[#  25]+0.003*[#  29]+0.003*[#  33]+0.003*[#  11]+
          +0.001*[#   2]+0.001*[#   6]+0.001*[#  10]+
    |psi|^2 = 0.975
==== e(  16) =     0.23294 eV ==== 
     psi = 0.112*[#  15]+0.112*[#  19]+0.106*[#  28]+0.106*[#  36]+0.076*[#  24]+
          +0.076*[#  32]+0.065*[#  23]+0.065*[#  31]+0.034*[#  27]+0.034*[#  35]+
          +0.028*[#  16]+0.028*[#  20]+0.017*[#  14]+0.017*[#  18]+0.017*[#  22]+
          +0.017*[#  26]+0.017*[#  30]+0.017*[#  34]+0.005*[#  11]+0.004*[#   4]+
          +0.004*[#   8]+0.002*[#   3]+0.002*[#   7]+0.002*[#   2]+0.002*[#   6]+
          +0.002*[#  10]+0.002*[#  13]+0.002*[#  17]+0.002*[#  21]+0.002*[#  25]+
          +0.002*[#  29]+0.002*[#  33]+0.002*[#  12]+
    |psi|^2 = 0.977
==== e(  17) =     0.48991 eV ==== 
     psi = 0.116*[#  15]+0.116*[#  19]+0.099*[#  28]+0.099*[#  36]+0.087*[#  24]+
          +0.087*[#  32]+0.054*[#  23]+0.054*[#  31]+0.041*[#  27]+0.041*[#  35]+
          +0.025*[#  16]+0.025*[#  20]+0.015*[#  14]+0.015*[#  18]+0.015*[#  22]+
          +0.015*[#  26]+0.015*[#  30]+0.015*[#  34]+0.004*[#   2]+0.004*[#   6]+
          +0.004*[#  10]+0.004*[#  11]+0.003*[#   4]+0.003*[#   8]+0.003*[#  13]+
          +0.003*[#  17]+0.003*[#  21]+0.003*[#  25]+0.003*[#  29]+0.003*[#  33]+
          +0.001*[#   3]+0.001*[#   7]+
    |psi|^2 = 0.977
==== e(  18) =     0.91589 eV ==== 
     psi = 0.085*[#  24]+0.085*[#  32]+0.076*[#  15]+0.076*[#  19]+0.065*[#  27]+
          +0.065*[#  35]+0.046*[#  28]+0.046*[#  36]+0.045*[#  14]+0.045*[#  18]+
          +0.045*[#  22]+0.045*[#  26]+0.045*[#  30]+0.045*[#  34]+0.035*[#  16]+
          +0.035*[#  20]+0.026*[#  23]+0.026*[#  31]+0.004*[#   2]+0.004*[#   6]+
          +0.004*[#  10]+0.004*[#  11]+0.004*[#   4]+0.004*[#   8]+0.003*[#   3]+
          +0.003*[#   7]+0.003*[#  12]+0.002*[#  13]+0.002*[#  17]+0.002*[#  21]+
          +0.002*[#  25]+0.002*[#  29]+0.002*[#  33]+
    |psi|^2 = 0.980
==== e(  19) =     1.01406 eV ==== 
     psi = 0.090*[#  15]+0.090*[#  19]+0.089*[#  28]+0.089*[#  36]+0.062*[#  24]+
          +0.062*[#  32]+0.061*[#  23]+0.061*[#  31]+0.034*[#  27]+0.034*[#  35]+
          +0.033*[#  16]+0.033*[#  20]+0.031*[#  14]+0.031*[#  18]+0.031*[#  22]+
          +0.031*[#  26]+0.031*[#  30]+0.031*[#  34]+0.007*[#  12]+0.006*[#   3]+
          +0.006*[#   7]+0.004*[#   4]+0.004*[#   8]+0.004*[#  11]+0.003*[#   2]+
          +0.003*[#   6]+0.003*[#  10]+0.002*[#  13]+0.002*[#  17]+0.002*[#  21]+
          +0.002*[#  25]+0.002*[#  29]+0.002*[#  33]+
    |psi|^2 = 0.980
==== e(  20) =     1.18262 eV ==== 
     psi = 0.097*[#  15]+0.097*[#  19]+0.090*[#  28]+0.090*[#  36]+0.063*[#  24]+
          +0.063*[#  32]+0.050*[#  23]+0.050*[#  31]+0.044*[#  14]+0.044*[#  18]+
          +0.044*[#  22]+0.044*[#  26]+0.044*[#  30]+0.044*[#  34]+0.023*[#  27]+
          +0.023*[#  35]+0.017*[#  16]+0.017*[#  20]+0.006*[#  12]+0.005*[#   3]+
          +0.005*[#   7]+0.003*[#   4]+0.003*[#   8]+0.002*[#   2]+0.002*[#   6]+
          +0.002*[#  10]+0.002*[#  11]+
    |psi|^2 = 0.979
==== e(  21) =     1.47201 eV ==== 
     psi = 0.095*[#  23]+0.095*[#  31]+0.095*[#  28]+0.095*[#  36]+0.061*[#  16]+
          +0.061*[#  20]+0.061*[#  15]+0.061*[#  19]+0.035*[#  14]+0.035*[#  18]+
          +0.035*[#  22]+0.035*[#  26]+0.035*[#  30]+0.035*[#  34]+0.028*[#  27]+
          +0.028*[#  35]+0.028*[#  24]+0.028*[#  32]+0.005*[#   2]+0.005*[#   6]+
          +0.005*[#  10]+0.002*[#  11]+0.002*[#   4]+0.002*[#   8]+0.002*[#  13]+
          +0.002*[#  17]+0.002*[#  21]+0.002*[#  25]+0.002*[#  29]+0.002*[#  33]+
          +0.002*[#   3]+0.002*[#   7]+0.002*[#  12]+
    |psi|^2 = 0.986
==== e(  22) =     1.96905 eV ==== 
     psi = 0.073*[#  14]+0.073*[#  18]+0.073*[#  22]+0.073*[#  26]+0.073*[#  30]+
          +0.073*[#  34]+0.051*[#  16]+0.051*[#  20]+0.047*[#  23]+0.047*[#  31]+
          +0.046*[#  27]+0.046*[#  35]+0.039*[#  28]+0.039*[#  36]+0.038*[#  24]+
          +0.038*[#  32]+0.035*[#  15]+0.035*[#  19]+0.003*[#  13]+0.003*[#  17]+
          +0.003*[#  21]+0.003*[#  25]+0.003*[#  29]+0.003*[#  33]+0.002*[#   2]+
          +0.002*[#   6]+0.002*[#  10]+0.002*[#  12]+0.002*[#   3]+0.002*[#   7]+
          +0.002*[#   4]+0.002*[#   8]+0.002*[#  11]+
    |psi|^2 = 0.990
==== e(  23) =     2.24153 eV ==== 
     psi = 0.073*[#  24]+0.073*[#  32]+0.072*[#  15]+0.072*[#  19]+0.064*[#  14]+
          +0.064*[#  18]+0.064*[#  22]+0.064*[#  26]+0.064*[#  30]+0.064*[#  34]+
          +0.051*[#  27]+0.051*[#  35]+0.048*[#  28]+0.048*[#  36]+0.027*[#  16]+
          +0.027*[#  20]+0.025*[#  23]+0.025*[#  31]+0.001*[#  11]+0.001*[#  13]+
          +0.001*[#  17]+0.001*[#  21]+0.001*[#  25]+0.001*[#  29]+0.001*[#  33]+
          +0.001*[#   2]+0.001*[#   4]+0.001*[#   6]+0.001*[#   8]+0.001*[#  10]+
    |psi|^2 = 0.990
==== e(  24) =     2.40929 eV ==== 
     psi = 0.080*[#  15]+0.080*[#  19]+0.079*[#  24]+0.079*[#  32]+0.056*[#  28]+
          +0.056*[#  36]+0.055*[#  27]+0.055*[#  35]+0.052*[#  14]+0.052*[#  18]+
          +0.052*[#  22]+0.052*[#  26]+0.052*[#  30]+0.052*[#  34]+0.032*[#  23]+
          +0.032*[#  31]+0.031*[#  16]+0.031*[#  20]+0.001*[#  13]+0.001*[#  17]+
          +0.001*[#  21]+0.001*[#  25]+0.001*[#  29]+0.001*[#  33]+
    |psi|^2 = 0.993
==== e(  25) =    10.22637 eV ==== 
     psi = 0.112*[#   1]+0.112*[#   5]+0.112*[#   9]+0.058*[#   2]+0.058*[#   6]+
          +0.058*[#  10]+0.035*[#  13]+0.035*[#  17]+0.035*[#  21]+0.035*[#  25]+
          +0.035*[#  29]+0.035*[#  33]+0.017*[#  12]+0.016*[#   3]+0.016*[#   7]+
          +0.014*[#   4]+0.014*[#   8]+0.013*[#  11]+0.009*[#  14]+0.009*[#  18]+
          +0.009*[#  22]+0.009*[#  26]+0.009*[#  30]+0.009*[#  34]+0.004*[#  28]+
          +0.004*[#  36]+0.004*[#  23]+0.004*[#  31]+0.003*[#  15]+0.003*[#  19]+
          +0.003*[#  16]+0.003*[#  20]+0.002*[#  24]+0.002*[#  32]+0.002*[#  27]+
          +0.002*[#  35]+
    |psi|^2 = 0.900
==== e(  26) =    11.43196 eV ==== 
     psi = 0.111*[#   2]+0.111*[#   6]+0.111*[#  10]+0.068*[#   1]+0.068*[#   5]+
          +0.068*[#   9]+0.030*[#  13]+0.030*[#  17]+0.030*[#  21]+0.030*[#  25]+
          +0.030*[#  29]+0.030*[#  33]+0.013*[#  12]+0.013*[#   3]+0.013*[#   7]+
          +0.013*[#  14]+0.013*[#  18]+0.013*[#  22]+0.013*[#  26]+0.013*[#  30]+
          +0.013*[#  34]+0.011*[#   4]+0.011*[#   8]+0.010*[#  11]+0.003*[#  23]+
          +0.003*[#  31]+0.003*[#  28]+0.003*[#  36]+0.003*[#  16]+0.003*[#  20]+
          +0.002*[#  15]+0.002*[#  19]+0.002*[#  27]+0.002*[#  35]+0.001*[#  24]+
          +0.001*[#  32]+
    |psi|^2 = 0.895
==== e(  27) =    11.85396 eV ==== 
     psi = 0.074*[#  11]+0.068*[#   4]+0.068*[#   8]+0.054*[#   3]+0.054*[#   7]+
          +0.048*[#  12]+0.034*[#   2]+0.034*[#   6]+0.034*[#  10]+0.015*[#   1]+
          +0.015*[#   5]+0.015*[#   9]+0.013*[#  13]+0.013*[#  17]+0.013*[#  21]+
          +0.013*[#  25]+0.013*[#  29]+0.013*[#  33]+0.004*[#  14]+0.004*[#  18]+
          +0.004*[#  22]+0.004*[#  26]+0.004*[#  30]+0.004*[#  34]+0.003*[#  23]+
          +0.003*[#  28]+0.003*[#  31]+0.003*[#  36]+0.002*[#  15]+0.002*[#  16]+
          +0.002*[#  19]+0.002*[#  20]+0.001*[#  24]+0.001*[#  27]+0.001*[#  32]+
          +0.001*[#  35]+
    |psi|^2 = 0.638
==== e(  28) =    12.12225 eV ==== 
     psi = 0.080*[#  11]+0.075*[#   4]+0.075*[#   8]+0.064*[#   3]+0.064*[#   7]+
          +0.059*[#  12]+0.051*[#   2]+0.051*[#   6]+0.051*[#  10]+0.018*[#  13]+
          +0.018*[#  17]+0.018*[#  21]+0.018*[#  25]+0.018*[#  29]+0.018*[#  33]+
          +0.008*[#   1]+0.008*[#   5]+0.008*[#   9]+0.002*[#  24]+0.002*[#  27]+
          +0.002*[#  32]+0.002*[#  35]+0.002*[#  15]+0.002*[#  19]+0.002*[#  16]+
          +0.002*[#  20]+0.002*[#  14]+0.002*[#  18]+0.002*[#  22]+0.002*[#  26]+
          +0.002*[#  30]+0.002*[#  34]+0.001*[#  23]+0.001*[#  28]+0.001*[#  31]+
          +0.001*[#  36]+
    |psi|^2 = 0.734
==== e(  29) =    12.77134 eV ==== 
     psi = 0.082*[#  11]+0.080*[#   4]+0.080*[#   8]+0.078*[#   3]+0.078*[#   7]+
          +0.076*[#  12]+0.034*[#   2]+0.034*[#   6]+0.034*[#  10]+0.016*[#  13]+
          +0.016*[#  17]+0.016*[#  21]+0.016*[#  25]+0.016*[#  29]+0.016*[#  33]+
          +0.006*[#  15]+0.006*[#  19]+0.005*[#  28]+0.005*[#  36]+0.005*[#  24]+
          +0.005*[#  32]+0.004*[#  14]+0.004*[#  18]+0.004*[#  22]+0.004*[#  26]+
          +0.004*[#  30]+0.004*[#  34]+0.003*[#  23]+0.003*[#  31]+0.003*[#  27]+
          +0.003*[#  35]+0.002*[#   1]+0.002*[#   5]+0.002*[#   9]+0.002*[#  16]+
          +0.002*[#  20]+
    |psi|^2 = 0.758

 k =   0.3608439182  0.3750000000  0.1136237514
==== e(   1) =   -16.42344 eV ==== 
     psi = 0.111*[#  13]+0.111*[#  17]+0.111*[#  21]+0.111*[#  25]+0.111*[#  29]+
          +0.111*[#  33]+0.076*[#   1]+0.076*[#   5]+0.076*[#   9]+0.018*[#  11]+
          +0.014*[#   4]+0.014*[#   8]+0.007*[#   3]+0.007*[#   7]+0.004*[#   2]+
          +0.004*[#   6]+0.004*[#  10]+0.003*[#  12]+0.002*[#  23]+0.002*[#  31]+
          +0.002*[#  28]+0.002*[#  36]+0.002*[#  16]+0.002*[#  20]+0.001*[#  15]+
          +0.001*[#  19]+
    |psi|^2 = 0.994
==== e(   2) =   -15.94362 eV ==== 
     psi = 0.115*[#  13]+0.115*[#  17]+0.115*[#  21]+0.115*[#  25]+0.115*[#  29]+
          +0.115*[#  33]+0.053*[#   1]+0.053*[#   5]+0.053*[#   9]+0.021*[#  11]+
          +0.019*[#   4]+0.019*[#   8]+0.016*[#   3]+0.016*[#   7]+0.015*[#  12]+
          +0.004*[#   2]+0.004*[#   6]+0.004*[#  10]+0.002*[#  23]+0.002*[#  31]+
          +0.002*[#  16]+0.002*[#  20]+0.002*[#  28]+0.002*[#  36]+0.001*[#  27]+
          +0.001*[#  35]+0.001*[#  14]+0.001*[#  18]+0.001*[#  22]+0.001*[#  26]+
          +0.001*[#  30]+0.001*[#  34]+
    |psi|^2 = 0.994
==== e(   3) =   -15.36592 eV ==== 
     psi = 0.123*[#  13]+0.123*[#  17]+0.123*[#  21]+0.123*[#  25]+0.123*[#  29]+
          +0.123*[#  33]+0.032*[#  12]+0.030*[#   1]+0.030*[#   5]+0.030*[#   9]+
          +0.025*[#   3]+0.025*[#   7]+0.012*[#   4]+0.012*[#   8]+0.012*[#   2]+
          +0.012*[#   6]+0.012*[#  10]+0.006*[#  11]+0.002*[#  16]+0.002*[#  20]+
          +0.002*[#  23]+0.002*[#  31]+0.001*[#  14]+0.001*[#  18]+0.001*[#  22]+
          +0.001*[#  26]+0.001*[#  27]+0.001*[#  28]+0.001*[#  30]+0.001*[#  34]+
          +0.001*[#  35]+0.001*[#  36]+
    |psi|^2 = 0.994
==== e(   4) =   -14.80497 eV ==== 
     psi = 0.131*[#  13]+0.131*[#  17]+0.131*[#  21]+0.131*[#  25]+0.131*[#  29]+
          +0.131*[#  33]+0.037*[#   2]+0.037*[#   6]+0.037*[#  10]+0.020*[#  11]+
          +0.018*[#   4]+0.018*[#   8]+0.012*[#   3]+0.012*[#   7]+0.009*[#  12]+
    |psi|^2 = 0.993
==== e(   5) =   -14.77581 eV ==== 
     psi = 0.132*[#  13]+0.132*[#  17]+0.132*[#  21]+0.132*[#  25]+0.132*[#  29]+
          +0.132*[#  33]+0.033*[#   2]+0.033*[#   6]+0.033*[#  10]+0.022*[#  11]+
          +0.019*[#   4]+0.019*[#   8]+0.013*[#   3]+0.013*[#   7]+0.010*[#  12]+
    |psi|^2 = 0.993
==== e(   6) =   -14.74189 eV ==== 
     psi = 0.132*[#  13]+0.132*[#  17]+0.132*[#  21]+0.132*[#  25]+0.132*[#  29]+
          +0.132*[#  33]+0.034*[#  12]+0.031*[#   3]+0.031*[#   7]+0.024*[#   4]+
          +0.024*[#   8]+0.020*[#  11]+0.010*[#   2]+0.010*[#   6]+0.010*[#  10]+
    |psi|^2 = 0.993
==== e(   7) =    -5.86065 eV ==== 
     psi = 0.073*[#   1]+0.073*[#   5]+0.073*[#   9]+0.072*[#  16]+0.072*[#  20]+
          +0.062*[#  27]+0.062*[#  35]+0.048*[#  23]+0.048*[#  31]+0.041*[#  14]+
          +0.041*[#  18]+0.041*[#  22]+0.041*[#  26]+0.041*[#  30]+0.041*[#  34]+
          +0.027*[#  24]+0.027*[#  32]+0.013*[#  28]+0.013*[#  36]+0.012*[#  12]+
          +0.009*[#   3]+0.009*[#   7]+0.005*[#  13]+0.005*[#  17]+0.005*[#  21]+
          +0.005*[#  25]+0.005*[#  29]+0.005*[#  33]+0.004*[#   4]+0.004*[#   8]+
          +0.003*[#   2]+0.003*[#   6]+0.003*[#  10]+0.002*[#  15]+0.002*[#  19]+
    |psi|^2 = 0.991
==== e(   8) =    -4.77696 eV ==== 
     psi = 0.068*[#  16]+0.068*[#  20]+0.059*[#  27]+0.059*[#  35]+0.051*[#   1]+
          +0.051*[#   5]+0.051*[#   9]+0.047*[#  14]+0.047*[#  18]+0.047*[#  22]+
          +0.047*[#  26]+0.047*[#  30]+0.047*[#  34]+0.045*[#  23]+0.045*[#  31]+
          +0.027*[#  24]+0.027*[#  32]+0.014*[#  12]+0.013*[#   3]+0.013*[#   7]+
          +0.013*[#  28]+0.013*[#  36]+0.009*[#   4]+0.009*[#   8]+0.008*[#  11]+
          +0.007*[#  13]+0.007*[#  17]+0.007*[#  21]+0.007*[#  25]+0.007*[#  29]+
          +0.007*[#  33]+0.006*[#   2]+0.006*[#   6]+0.006*[#  10]+0.004*[#  15]+
          +0.004*[#  19]+
    |psi|^2 = 0.989
==== e(   9) =    -3.58421 eV ==== 
     psi = 0.073*[#  16]+0.073*[#  20]+0.064*[#  27]+0.064*[#  35]+0.047*[#  14]+
          +0.047*[#  18]+0.047*[#  22]+0.047*[#  23]+0.047*[#  26]+0.047*[#  30]+
          +0.047*[#  31]+0.047*[#  34]+0.031*[#  24]+0.031*[#  32]+0.028*[#   1]+
          +0.028*[#   5]+0.028*[#   9]+0.017*[#  12]+0.016*[#   3]+0.016*[#   7]+
          +0.014*[#   2]+0.014*[#   6]+0.014*[#  10]+0.013*[#  28]+0.013*[#  36]+
          +0.013*[#   4]+0.013*[#   8]+0.012*[#  11]+0.005*[#  13]+0.005*[#  17]+
          +0.005*[#  21]+0.005*[#  25]+0.005*[#  29]+0.005*[#  33]+0.005*[#  15]+
          +0.005*[#  19]+
    |psi|^2 = 0.988
==== e(  10) =    -2.88641 eV ==== 
     psi = 0.076*[#  16]+0.076*[#  20]+0.060*[#  23]+0.060*[#  31]+0.059*[#  27]+
          +0.059*[#  35]+0.043*[#  14]+0.043*[#  18]+0.043*[#  22]+0.043*[#  26]+
          +0.043*[#  30]+0.043*[#  34]+0.039*[#  12]+0.033*[#   3]+0.033*[#   7]+
          +0.026*[#  28]+0.026*[#  36]+0.025*[#  24]+0.025*[#  32]+0.020*[#   2]+
          +0.020*[#   6]+0.020*[#  10]+0.019*[#   4]+0.019*[#   8]+0.012*[#  11]+
          +0.008*[#  15]+0.008*[#  19]+
    |psi|^2 = 0.987
==== e(  11) =    -2.71888 eV ==== 
     psi = 0.096*[#  16]+0.096*[#  20]+0.075*[#  23]+0.075*[#  31]+0.071*[#  27]+
          +0.071*[#  35]+0.034*[#   2]+0.034*[#   6]+0.034*[#  10]+0.029*[#  14]+
          +0.029*[#  18]+0.029*[#  22]+0.029*[#  26]+0.029*[#  28]+0.029*[#  30]+
          +0.029*[#  34]+0.029*[#  36]+0.025*[#  24]+0.025*[#  32]+0.019*[#  12]+
          +0.018*[#   3]+0.018*[#   7]+0.014*[#   4]+0.014*[#   8]+0.012*[#  11]+
          +0.004*[#  15]+0.004*[#  19]+0.003*[#   1]+0.003*[#   5]+0.003*[#   9]+
          +0.001*[#  13]+0.001*[#  17]+0.001*[#  21]+0.001*[#  25]+0.001*[#  29]+
          +0.001*[#  33]+
    |psi|^2 = 0.987
==== e(  12) =    -2.12583 eV ==== 
     psi = 0.081*[#  16]+0.081*[#  20]+0.070*[#  27]+0.070*[#  35]+0.054*[#  23]+
          +0.054*[#  31]+0.049*[#  14]+0.049*[#  18]+0.049*[#  22]+0.049*[#  26]+
          +0.049*[#  30]+0.049*[#  34]+0.032*[#  24]+0.032*[#  32]+0.030*[#  11]+
          +0.024*[#   2]+0.024*[#   6]+0.024*[#  10]+0.023*[#   4]+0.023*[#   8]+
          +0.016*[#  28]+0.016*[#  36]+0.010*[#   3]+0.010*[#   7]+0.005*[#  15]+
          +0.005*[#  19]+0.003*[#  12]+
    |psi|^2 = 0.986
==== e(  13) =    -0.61924 eV ==== 
     psi = 0.064*[#  15]+0.064*[#  19]+0.059*[#  28]+0.059*[#  36]+0.051*[#  24]+
          +0.051*[#  32]+0.042*[#  23]+0.042*[#  31]+0.041*[#  14]+0.041*[#  18]+
          +0.041*[#  22]+0.041*[#  26]+0.041*[#  30]+0.041*[#  34]+0.034*[#  27]+
          +0.034*[#  35]+0.029*[#  11]+0.029*[#  16]+0.029*[#  20]+0.023*[#   4]+
          +0.023*[#   8]+0.010*[#   3]+0.010*[#   7]+0.009*[#   2]+0.009*[#   6]+
          +0.009*[#  10]+0.009*[#  13]+0.009*[#  17]+0.009*[#  21]+0.009*[#  25]+
          +0.009*[#  29]+0.009*[#  33]+0.003*[#  12]+
    |psi|^2 = 0.984
==== e(  14) =    -0.37572 eV ==== 
     psi = 0.086*[#  15]+0.086*[#  19]+0.072*[#  24]+0.072*[#  32]+0.069*[#  28]+
          +0.069*[#  36]+0.039*[#  27]+0.039*[#  35]+0.037*[#  23]+0.037*[#  31]+
          +0.030*[#  14]+0.030*[#  18]+0.030*[#  22]+0.030*[#  26]+0.030*[#  30]+
          +0.030*[#  34]+0.026*[#  11]+0.022*[#  16]+0.022*[#  20]+0.020*[#   4]+
          +0.020*[#   8]+0.009*[#  13]+0.009*[#  17]+0.009*[#  21]+0.009*[#  25]+
          +0.009*[#  29]+0.009*[#  33]+0.007*[#   3]+0.007*[#   7]+0.005*[#   2]+
          +0.005*[#   6]+0.005*[#  10]+0.001*[#   1]+0.001*[#   5]+0.001*[#   9]+
    |psi|^2 = 0.982
==== e(  15) =    -0.15305 eV ==== 
     psi = 0.081*[#  24]+0.081*[#  32]+0.078*[#  15]+0.078*[#  19]+0.059*[#  27]+
          +0.059*[#  35]+0.054*[#  28]+0.054*[#  36]+0.035*[#  16]+0.035*[#  20]+
          +0.034*[#  14]+0.034*[#  18]+0.034*[#  22]+0.034*[#  26]+0.034*[#  30]+
          +0.034*[#  34]+0.032*[#  23]+0.032*[#  31]+0.019*[#  12]+0.015*[#   3]+
          +0.015*[#   7]+0.007*[#   4]+0.007*[#   8]+0.004*[#  13]+0.004*[#  17]+
          +0.004*[#  21]+0.004*[#  25]+0.004*[#  29]+0.004*[#  33]+0.003*[#  11]+
          +0.003*[#   2]+0.003*[#   6]+0.003*[#  10]+
    |psi|^2 = 0.977
==== e(  16) =     0.28548 eV ==== 
     psi = 0.069*[#  28]+0.069*[#  36]+0.063*[#  14]+0.063*[#  18]+0.063*[#  22]+
          +0.063*[#  26]+0.063*[#  30]+0.063*[#  34]+0.061*[#  23]+0.061*[#  31]+
          +0.054*[#  15]+0.054*[#  19]+0.039*[#  16]+0.039*[#  20]+0.031*[#  24]+
          +0.031*[#  32]+0.024*[#  27]+0.024*[#  35]+0.004*[#   2]+0.004*[#   6]+
          +0.004*[#  10]+0.003*[#  12]+0.003*[#   3]+0.003*[#   7]+0.002*[#   4]+
          +0.002*[#   8]+0.002*[#  11]+0.002*[#  13]+0.002*[#  17]+0.002*[#  21]+
          +0.002*[#  25]+0.002*[#  29]+0.002*[#  33]+
    |psi|^2 = 0.975
==== e(  17) =     0.48481 eV ==== 
     psi = 0.070*[#  28]+0.070*[#  36]+0.063*[#  14]+0.063*[#  18]+0.063*[#  22]+
          +0.063*[#  26]+0.063*[#  30]+0.063*[#  34]+0.062*[#  15]+0.062*[#  19]+
          +0.051*[#  23]+0.051*[#  31]+0.036*[#  24]+0.036*[#  32]+0.024*[#  16]+
          +0.024*[#  20]+0.017*[#  27]+0.017*[#  35]+0.006*[#   2]+0.006*[#   6]+
          +0.006*[#  10]+0.006*[#  11]+0.005*[#   4]+0.005*[#   8]+0.005*[#  13]+
          +0.005*[#  17]+0.005*[#  21]+0.005*[#  25]+0.005*[#  29]+0.005*[#  33]+
          +0.004*[#   3]+0.004*[#   7]+0.004*[#  12]+
    |psi|^2 = 0.979
==== e(  18) =     0.76317 eV ==== 
     psi = 0.061*[#  28]+0.061*[#  36]+0.058*[#  15]+0.058*[#  19]+0.053*[#  23]+
          +0.053*[#  31]+0.052*[#  14]+0.052*[#  18]+0.052*[#  22]+0.052*[#  26]+
          +0.052*[#  30]+0.052*[#  34]+0.046*[#  24]+0.046*[#  32]+0.041*[#  16]+
          +0.041*[#  20]+0.038*[#  27]+0.038*[#  35]+0.010*[#   2]+0.010*[#   6]+
          +0.010*[#  10]+0.004*[#  13]+0.004*[#  17]+0.004*[#  21]+0.004*[#  25]+
          +0.004*[#  29]+0.004*[#  33]+0.003*[#  11]+0.003*[#   4]+0.003*[#   8]+
          +0.003*[#   3]+0.003*[#   7]+0.003*[#  12]+
    |psi|^2 = 0.981
==== e(  19) =     0.90348 eV ==== 
     psi = 0.058*[#  28]+0.058*[#  36]+0.058*[#  15]+0.058*[#  19]+0.053*[#  14]+
          +0.053*[#  18]+0.053*[#  22]+0.053*[#  26]+0.053*[#  30]+0.053*[#  34]+
          +0.049*[#  23]+0.049*[#  31]+0.048*[#  24]+0.048*[#  32]+0.039*[#  16]+
          +0.039*[#  20]+0.039*[#  27]+0.039*[#  35]+0.008*[#  12]+0.008*[#   3]+
          +0.008*[#   7]+0.006*[#   2]+0.006*[#   6]+0.006*[#  10]+0.006*[#   4]+
          +0.006*[#   8]+0.005*[#  11]+0.004*[#  13]+0.004*[#  17]+0.004*[#  21]+
          +0.004*[#  25]+0.004*[#  29]+0.004*[#  33]+
    |psi|^2 = 0.983
==== e(  20) =     1.31240 eV ==== 
     psi = 0.076*[#  15]+0.076*[#  19]+0.068*[#  28]+0.068*[#  36]+0.061*[#  24]+
          +0.061*[#  32]+0.055*[#  14]+0.055*[#  18]+0.055*[#  22]+0.055*[#  26]+
          +0.055*[#  30]+0.055*[#  34]+0.043*[#  23]+0.043*[#  31]+0.036*[#  27]+
          +0.036*[#  35]+0.028*[#  16]+0.028*[#  20]+0.003*[#  12]+0.002*[#   3]+
          +0.002*[#   7]+0.002*[#   2]+0.002*[#   6]+0.002*[#  10]+0.001*[#  13]+
          +0.001*[#  17]+0.001*[#  21]+0.001*[#  25]+0.001*[#  29]+0.001*[#  33]+
    |psi|^2 = 0.980
==== e(  21) =     1.52975 eV ==== 
     psi = 0.079*[#  15]+0.079*[#  19]+0.079*[#  24]+0.079*[#  32]+0.060*[#  28]+
          +0.060*[#  36]+0.060*[#  27]+0.060*[#  35]+0.042*[#  23]+0.042*[#  31]+
          +0.041*[#  16]+0.041*[#  20]+0.039*[#  14]+0.039*[#  18]+0.039*[#  22]+
          +0.039*[#  26]+0.039*[#  30]+0.039*[#  34]+0.003*[#  12]+0.003*[#   3]+
          +0.003*[#   7]+0.002*[#   4]+0.002*[#   8]+0.002*[#   2]+0.002*[#   6]+
          +0.002*[#  10]+0.002*[#  11]+
    |psi|^2 = 0.982
==== e(  22) =     1.79715 eV ==== 
     psi = 0.071*[#  15]+0.071*[#  19]+0.069*[#  14]+0.069*[#  18]+0.069*[#  22]+
          +0.069*[#  26]+0.069*[#  30]+0.069*[#  34]+0.065*[#  28]+0.065*[#  36]+
          +0.052*[#  24]+0.052*[#  32]+0.041*[#  23]+0.041*[#  31]+0.028*[#  27]+
          +0.028*[#  35]+0.022*[#  16]+0.022*[#  20]+0.002*[#   2]+0.002*[#   6]+
          +0.002*[#  10]+
    |psi|^2 = 0.983
==== e(  23) =     2.22597 eV ==== 
     psi = 0.094*[#  15]+0.094*[#  19]+0.075*[#  24]+0.075*[#  32]+0.074*[#  28]+
          +0.074*[#  36]+0.053*[#  14]+0.053*[#  18]+0.053*[#  22]+0.053*[#  26]+
          +0.053*[#  30]+0.053*[#  34]+0.035*[#  27]+0.035*[#  35]+0.035*[#  23]+
          +0.035*[#  31]+0.016*[#  16]+0.016*[#  20]+
    |psi|^2 = 0.989
==== e(  24) =     2.45740 eV ==== 
     psi = 0.085*[#  15]+0.085*[#  19]+0.077*[#  24]+0.077*[#  32]+0.062*[#  28]+
          +0.062*[#  36]+0.055*[#  14]+0.055*[#  18]+0.055*[#  22]+0.055*[#  26]+
          +0.055*[#  30]+0.055*[#  34]+0.047*[#  27]+0.047*[#  35]+0.032*[#  23]+
          +0.032*[#  31]+0.024*[#  16]+0.024*[#  20]+
    |psi|^2 = 0.992
==== e(  25) =    10.79206 eV ==== 
     psi = 0.091*[#   1]+0.091*[#   5]+0.091*[#   9]+0.082*[#  11]+0.067*[#   4]+
          +0.067*[#   8]+0.037*[#   3]+0.037*[#   7]+0.033*[#  13]+0.033*[#  17]+
          +0.033*[#  21]+0.033*[#  25]+0.033*[#  29]+0.033*[#  33]+0.023*[#  12]+
          +0.010*[#   2]+0.010*[#   6]+0.010*[#  10]+0.010*[#  15]+0.010*[#  19]+
          +0.010*[#  28]+0.010*[#  36]+0.007*[#  23]+0.007*[#  24]+0.007*[#  31]+
          +0.007*[#  32]+0.004*[#  16]+0.004*[#  20]+0.004*[#  27]+0.004*[#  35]+
          +0.002*[#  14]+0.002*[#  18]+0.002*[#  22]+0.002*[#  26]+0.002*[#  30]+
          +0.002*[#  34]+
    |psi|^2 = 0.908
==== e(  26) =    11.75368 eV ==== 
     psi = 0.097*[#  12]+0.082*[#   3]+0.082*[#   7]+0.061*[#   1]+0.061*[#   5]+
          +0.061*[#   9]+0.050*[#   4]+0.050*[#   8]+0.034*[#  11]+0.030*[#  13]+
          +0.030*[#  17]+0.030*[#  21]+0.030*[#  25]+0.030*[#  29]+0.030*[#  33]+
          +0.014*[#   2]+0.014*[#   6]+0.014*[#  10]+0.012*[#  15]+0.012*[#  19]+
          +0.010*[#  24]+0.010*[#  32]+0.010*[#  28]+0.010*[#  36]+0.007*[#  27]+
          +0.007*[#  35]+0.006*[#  23]+0.006*[#  31]+0.004*[#  16]+0.004*[#  20]+
          +0.001*[#  14]+0.001*[#  18]+0.001*[#  22]+0.001*[#  26]+0.001*[#  30]+
          +0.001*[#  34]+
    |psi|^2 = 0.906
==== e(  27) =    12.02568 eV ==== 
     psi = 0.107*[#  12]+0.094*[#   3]+0.094*[#   7]+0.067*[#   4]+0.067*[#   8]+
          +0.054*[#  11]+0.026*[#   1]+0.026*[#   5]+0.026*[#   9]+0.022*[#  13]+
          +0.022*[#  17]+0.022*[#  21]+0.022*[#  25]+0.022*[#  29]+0.022*[#  33]+
          +0.020*[#   2]+0.020*[#   6]+0.020*[#  10]+0.006*[#  15]+0.006*[#  19]+
          +0.006*[#  24]+0.006*[#  32]+0.005*[#  28]+0.005*[#  36]+0.005*[#  27]+
          +0.005*[#  35]+0.004*[#  23]+0.004*[#  31]+0.004*[#  16]+0.004*[#  20]+
          +0.003*[#  14]+0.003*[#  18]+0.003*[#  22]+0.003*[#  26]+0.003*[#  30]+
          +0.003*[#  34]+
    |psi|^2 = 0.829
==== e(  28) =    12.53646 eV ==== 
     psi = 0.098*[#   2]+0.098*[#   6]+0.098*[#  10]+0.063*[#  11]+0.054*[#   4]+
          +0.054*[#   8]+0.035*[#   3]+0.035*[#   7]+0.025*[#  12]+0.017*[#  13]+
          +0.017*[#  17]+0.017*[#  21]+0.017*[#  25]+0.017*[#  29]+0.017*[#  33]+
          +0.012*[#   1]+0.012*[#   5]+0.012*[#   9]+0.009*[#  23]+0.009*[#  31]+
          +0.008*[#  28]+0.008*[#  36]+0.008*[#  16]+0.008*[#  20]+0.007*[#  15]+
          +0.007*[#  19]+0.006*[#  27]+0.006*[#  35]+0.006*[#  24]+0.006*[#  32]+
          +0.005*[#  14]+0.005*[#  18]+0.005*[#  22]+0.005*[#  26]+0.005*[#  30]+
          +0.005*[#  34]+
    |psi|^2 = 0.820
==== e(  29) =    12.96639 eV ==== 
     psi = 0.139*[#   2]+0.139*[#   6]+0.139*[#  10]+0.030*[#  12]+0.023*[#   3]+
          +0.023*[#   7]+0.018*[#   1]+0.018*[#   5]+0.018*[#   9]+0.011*[#  16]+
          +0.011*[#  20]+0.011*[#   4]+0.011*[#   8]+0.009*[#  23]+0.009*[#  31]+
          +0.009*[#  27]+0.009*[#  35]+0.009*[#  13]+0.009*[#  17]+0.009*[#  21]+
          +0.009*[#  25]+0.009*[#  29]+0.009*[#  33]+0.005*[#  28]+0.005*[#  36]+
          +0.005*[#  24]+0.005*[#  32]+0.004*[#  11]+0.003*[#  15]+0.003*[#  19]+
          +0.001*[#  14]+0.001*[#  18]+0.001*[#  22]+0.001*[#  26]+0.001*[#  30]+
          +0.001*[#  34]+
    |psi|^2 = 0.721

 k =   0.3608439182  0.3750000000  0.3408712542
==== e(   1) =   -16.36901 eV ==== 
     psi = 0.113*[#  13]+0.113*[#  17]+0.113*[#  21]+0.113*[#  25]+0.113*[#  29]+
          +0.113*[#  33]+0.078*[#   1]+0.078*[#   5]+0.078*[#   9]+0.009*[#  12]+
          +0.008*[#   3]+0.008*[#   7]+0.007*[#   2]+0.007*[#   6]+0.007*[#  10]+
          +0.005*[#   4]+0.005*[#   8]+0.004*[#  11]+0.002*[#  23]+0.002*[#  31]+
          +0.002*[#  28]+0.002*[#  36]+0.002*[#  16]+0.002*[#  20]+0.001*[#  15]+
          +0.001*[#  19]+0.001*[#  14]+0.001*[#  18]+0.001*[#  22]+0.001*[#  26]+
          +0.001*[#  30]+0.001*[#  34]+
    |psi|^2 = 0.995
==== e(   2) =   -15.94346 eV ==== 
     psi = 0.115*[#  13]+0.115*[#  17]+0.115*[#  21]+0.115*[#  25]+0.115*[#  29]+
          +0.115*[#  33]+0.054*[#   1]+0.054*[#   5]+0.054*[#   9]+0.018*[#  11]+
          +0.017*[#   4]+0.017*[#   8]+0.015*[#   3]+0.015*[#   7]+0.014*[#  12]+
          +0.006*[#   2]+0.006*[#   6]+0.006*[#  10]+0.002*[#  16]+0.002*[#  20]+
          +0.002*[#  23]+0.002*[#  31]+0.001*[#  27]+0.002*[#  28]+0.001*[#  35]+
          +0.002*[#  36]+0.001*[#  14]+0.001*[#  18]+0.001*[#  22]+0.001*[#  26]+
          +0.001*[#  30]+0.001*[#  34]+
    |psi|^2 = 0.994
==== e(   3) =   -15.42789 eV ==== 
     psi = 0.121*[#  13]+0.121*[#  17]+0.121*[#  21]+0.121*[#  25]+0.121*[#  29]+
          +0.121*[#  33]+0.030*[#   1]+0.030*[#   5]+0.030*[#   9]+0.029*[#  11]+
          +0.024*[#   4]+0.024*[#   8]+0.014*[#   2]+0.014*[#   6]+0.014*[#  10]+
          +0.014*[#   3]+0.014*[#   7]+0.009*[#  12]+0.002*[#  16]+0.002*[#  20]+
          +0.002*[#  23]+0.002*[#  31]+0.001*[#  28]+0.001*[#  36]+0.001*[#  27]+
          +0.001*[#  35]+
    |psi|^2 = 0.993
==== e(   4) =   -14.82129 eV ==== 
     psi = 0.131*[#  13]+0.131*[#  17]+0.131*[#  21]+0.131*[#  25]+0.131*[#  29]+
          +0.131*[#  33]+0.033*[#  11]+0.027*[#   2]+0.027*[#   6]+0.027*[#  10]+
          +0.026*[#   4]+0.026*[#   8]+0.013*[#   3]+0.013*[#   7]+0.006*[#  12]+
          +0.001*[#  28]+0.001*[#  36]+
    |psi|^2 = 0.992
==== e(   5) =   -14.77083 eV ==== 
     psi = 0.131*[#  13]+0.131*[#  17]+0.131*[#  21]+0.131*[#  25]+0.131*[#  29]+
          +0.131*[#  33]+0.035*[#   2]+0.035*[#   6]+0.035*[#  10]+0.023*[#  12]+
          +0.019*[#   3]+0.019*[#   7]+0.011*[#   4]+0.011*[#   8]+0.007*[#  11]+
    |psi|^2 = 0.993
==== e(   6) =   -14.74317 eV ==== 
     psi = 0.132*[#  13]+0.132*[#  17]+0.132*[#  21]+0.132*[#  25]+0.132*[#  29]+
          +0.132*[#  33]+0.041*[#  12]+0.034*[#   3]+0.034*[#   7]+0.019*[#   4]+
          +0.019*[#   8]+0.013*[#   2]+0.013*[#   6]+0.013*[#  10]+0.011*[#  11]+
    |psi|^2 = 0.993
==== e(   7) =    -5.73404 eV ==== 
     psi = 0.075*[#  16]+0.075*[#  20]+0.073*[#   1]+0.073*[#   5]+0.073*[#   9]+
          +0.064*[#  27]+0.064*[#  35]+0.049*[#  23]+0.049*[#  31]+0.039*[#  14]+
          +0.039*[#  18]+0.039*[#  22]+0.039*[#  26]+0.039*[#  30]+0.039*[#  34]+
          +0.027*[#  24]+0.027*[#  32]+0.012*[#  28]+0.012*[#  36]+0.006*[#  13]+
          +0.006*[#  17]+0.006*[#  21]+0.006*[#  25]+0.006*[#  29]+0.006*[#  33]+
          +0.005*[#   2]+0.005*[#   6]+0.005*[#  10]+0.004*[#   4]+0.004*[#   8]+
          +0.004*[#  11]+0.004*[#   3]+0.004*[#   7]+0.004*[#  12]+0.001*[#  15]+
          +0.001*[#  19]+
    |psi|^2 = 0.991
==== e(   8) =    -4.72561 eV ==== 
     psi = 0.072*[#  16]+0.072*[#  20]+0.060*[#  27]+0.060*[#  35]+0.050*[#   1]+
          +0.050*[#   5]+0.050*[#   9]+0.048*[#  23]+0.048*[#  31]+0.044*[#  14]+
          +0.044*[#  18]+0.044*[#  22]+0.044*[#  26]+0.044*[#  30]+0.044*[#  34]+
          +0.026*[#  24]+0.026*[#  32]+0.017*[#  12]+0.014*[#   3]+0.014*[#   7]+
          +0.014*[#  28]+0.014*[#  36]+0.008*[#   4]+0.008*[#   8]+0.008*[#  13]+
          +0.008*[#  17]+0.008*[#  21]+0.008*[#  25]+0.008*[#  29]+0.008*[#  33]+
          +0.006*[#  11]+0.005*[#   2]+0.005*[#   6]+0.005*[#  10]+0.003*[#  15]+
          +0.003*[#  19]+
    |psi|^2 = 0.990
==== e(   9) =    -3.87935 eV ==== 
     psi = 0.072*[#  16]+0.072*[#  20]+0.062*[#  27]+0.062*[#  35]+0.050*[#  23]+
          +0.050*[#  31]+0.044*[#  14]+0.044*[#  18]+0.044*[#  22]+0.044*[#  26]+
          +0.044*[#  30]+0.044*[#  34]+0.034*[#  12]+0.028*[#  24]+0.028*[#  32]+
          +0.027*[#   1]+0.027*[#   5]+0.027*[#   9]+0.026*[#   3]+0.026*[#   7]+
          +0.017*[#  28]+0.017*[#  36]+0.011*[#   4]+0.011*[#   8]+0.009*[#   2]+
          +0.009*[#   6]+0.009*[#  10]+0.006*[#  15]+0.006*[#  19]+0.006*[#  13]+
          +0.006*[#  17]+0.006*[#  21]+0.006*[#  25]+0.006*[#  29]+0.006*[#  33]+
          +0.003*[#  11]+
    |psi|^2 = 0.988
==== e(  10) =    -2.79973 eV ==== 
     psi = 0.058*[#  14]+0.058*[#  18]+0.058*[#  22]+0.058*[#  26]+0.058*[#  30]+
          +0.058*[#  34]+0.056*[#  16]+0.056*[#  20]+0.050*[#  27]+0.050*[#  35]+
          +0.041*[#  23]+0.041*[#  31]+0.035*[#  12]+0.033*[#   3]+0.033*[#   7]+
          +0.030*[#  24]+0.030*[#  32]+0.027*[#   4]+0.027*[#   8]+0.025*[#  11]+
          +0.020*[#  28]+0.020*[#  36]+0.015*[#  15]+0.015*[#  19]+0.011*[#   2]+
          +0.011*[#   6]+0.011*[#  10]+
    |psi|^2 = 0.986
==== e(  11) =    -2.46377 eV ==== 
     psi = 0.099*[#  16]+0.099*[#  20]+0.079*[#  27]+0.079*[#  35]+0.071*[#  23]+
          +0.071*[#  31]+0.042*[#   2]+0.042*[#   6]+0.042*[#  10]+0.033*[#  24]+
          +0.033*[#  32]+0.026*[#  14]+0.026*[#  18]+0.026*[#  22]+0.026*[#  26]+
          +0.026*[#  30]+0.026*[#  34]+0.025*[#  28]+0.025*[#  36]+0.013*[#  11]+
          +0.012*[#   4]+0.012*[#   8]+0.011*[#   3]+0.011*[#   7]+0.011*[#  12]+
          +0.006*[#  15]+0.006*[#  19]+
    |psi|^2 = 0.987
==== e(  12) =    -2.42294 eV ==== 
     psi = 0.082*[#  16]+0.082*[#  20]+0.065*[#  27]+0.065*[#  35]+0.063*[#  23]+
          +0.063*[#  31]+0.041*[#  14]+0.041*[#  18]+0.041*[#  22]+0.041*[#  26]+
          +0.041*[#  30]+0.041*[#  34]+0.028*[#  24]+0.028*[#  32]+0.027*[#   2]+
          +0.027*[#   6]+0.027*[#  10]+0.027*[#  11]+0.026*[#  28]+0.026*[#  36]+
          +0.023*[#   4]+0.023*[#   8]+0.014*[#   3]+0.014*[#   7]+0.009*[#  12]+
          +0.008*[#  15]+0.008*[#  19]+
    |psi|^2 = 0.987
==== e(  13) =    -0.70790 eV ==== 
     psi = 0.064*[#  14]+0.064*[#  18]+0.064*[#  22]+0.064*[#  26]+0.064*[#  30]+
          +0.064*[#  34]+0.052*[#  28]+0.052*[#  36]+0.051*[#  15]+0.051*[#  19]+
          +0.035*[#  23]+0.035*[#  31]+0.034*[#  11]+0.032*[#  24]+0.032*[#  32]+
          +0.026*[#   4]+0.026*[#   8]+0.016*[#  16]+0.016*[#  20]+0.015*[#  27]+
          +0.015*[#  35]+0.012*[#   2]+0.012*[#   6]+0.012*[#  10]+0.010*[#   3]+
          +0.010*[#   7]+0.010*[#  13]+0.010*[#  17]+0.010*[#  21]+0.010*[#  25]+
          +0.010*[#  29]+0.010*[#  33]+0.002*[#  12]+
    |psi|^2 = 0.984
==== e(  14) =    -0.54373 eV ==== 
     psi = 0.063*[#  15]+0.063*[#  19]+0.059*[#  28]+0.059*[#  36]+0.054*[#  24]+
          +0.054*[#  32]+0.044*[#  23]+0.044*[#  31]+0.039*[#  27]+0.039*[#  35]+
          +0.035*[#  14]+0.035*[#  18]+0.035*[#  22]+0.035*[#  26]+0.035*[#  30]+
          +0.035*[#  34]+0.034*[#  16]+0.034*[#  20]+0.019*[#  11]+0.017*[#   2]+
          +0.017*[#   6]+0.017*[#  10]+0.016*[#   4]+0.016*[#   8]+0.009*[#  13]+
          +0.009*[#  17]+0.009*[#  21]+0.009*[#  25]+0.009*[#  29]+0.009*[#  33]+
          +0.009*[#   3]+0.009*[#   7]+0.006*[#  12]+
    |psi|^2 = 0.982
==== e(  15) =    -0.00066 eV ==== 
     psi = 0.098*[#  15]+0.098*[#  19]+0.091*[#  28]+0.091*[#  36]+0.077*[#  24]+
          +0.077*[#  32]+0.064*[#  23]+0.064*[#  31]+0.050*[#  27]+0.050*[#  35]+
          +0.043*[#  16]+0.043*[#  20]+0.011*[#  14]+0.011*[#  18]+0.011*[#  22]+
          +0.011*[#  26]+0.011*[#  30]+0.011*[#  34]+0.007*[#  11]+0.007*[#   4]+
          +0.007*[#   8]+0.005*[#   3]+0.005*[#   7]+0.005*[#  12]+0.004*[#   2]+
          +0.004*[#   6]+0.004*[#  10]+0.003*[#  13]+0.003*[#  17]+0.003*[#  21]+
          +0.003*[#  25]+0.003*[#  29]+0.003*[#  33]+
    |psi|^2 = 0.978
==== e(  16) =     0.33658 eV ==== 
     psi = 0.073*[#  14]+0.073*[#  18]+0.073*[#  22]+0.073*[#  26]+0.073*[#  30]+
          +0.073*[#  34]+0.055*[#  27]+0.055*[#  35]+0.049*[#  16]+0.049*[#  20]+
          +0.048*[#  24]+0.048*[#  32]+0.036*[#  23]+0.036*[#  31]+0.035*[#  15]+
          +0.035*[#  19]+0.029*[#  28]+0.029*[#  36]+0.004*[#  12]+0.004*[#   3]+
          +0.004*[#   7]+0.003*[#   4]+0.003*[#   8]+0.003*[#  11]+0.002*[#  13]+
          +0.002*[#  17]+0.002*[#  21]+0.002*[#  25]+0.002*[#  29]+0.002*[#  33]+
          +0.001*[#   2]+0.001*[#   6]+0.001*[#  10]+
    |psi|^2 = 0.974
==== e(  17) =     0.55310 eV ==== 
     psi = 0.096*[#  15]+0.096*[#  19]+0.083*[#  28]+0.083*[#  36]+0.076*[#  24]+
          +0.076*[#  32]+0.049*[#  23]+0.049*[#  31]+0.042*[#  27]+0.042*[#  35]+
          +0.032*[#  14]+0.032*[#  18]+0.032*[#  22]+0.032*[#  26]+0.032*[#  30]+
          +0.032*[#  34]+0.029*[#  16]+0.029*[#  20]+0.004*[#   2]+0.004*[#   6]+
          +0.004*[#  10]+0.002*[#  12]+0.002*[#  13]+0.002*[#  17]+0.002*[#  21]+
          +0.002*[#  25]+0.002*[#  29]+0.002*[#  33]+0.002*[#   3]+0.002*[#   7]+
    |psi|^2 = 0.975
==== e(  18) =     0.81545 eV ==== 
     psi = 0.078*[#  14]+0.078*[#  18]+0.078*[#  22]+0.078*[#  26]+0.078*[#  30]+
          +0.078*[#  34]+0.048*[#  16]+0.048*[#  20]+0.046*[#  27]+0.046*[#  35]+
          +0.040*[#  23]+0.040*[#  31]+0.037*[#  24]+0.037*[#  32]+0.030*[#  28]+
          +0.030*[#  36]+0.029*[#  15]+0.029*[#  19]+0.006*[#  12]+0.005*[#   3]+
          +0.005*[#   7]+0.003*[#   4]+0.003*[#   8]+0.003*[#  13]+0.003*[#  17]+
          +0.003*[#  21]+0.003*[#  25]+0.003*[#  29]+0.003*[#  33]+0.003*[#  11]+
          +0.002*[#   2]+0.002*[#   6]+0.002*[#  10]+
    |psi|^2 = 0.978
==== e(  19) =     1.23598 eV ==== 
     psi = 0.083*[#  15]+0.083*[#  19]+0.082*[#  28]+0.082*[#  36]+0.056*[#  24]+
          +0.056*[#  32]+0.054*[#  23]+0.054*[#  31]+0.043*[#  14]+0.043*[#  18]+
          +0.043*[#  22]+0.043*[#  26]+0.043*[#  30]+0.043*[#  34]+0.029*[#  27]+
          +0.029*[#  35]+0.028*[#  16]+0.028*[#  20]+0.009*[#  12]+0.007*[#   3]+
          +0.007*[#   7]+0.005*[#   4]+0.005*[#   8]+0.003*[#  11]+0.003*[#  13]+
          +0.003*[#  17]+0.003*[#  21]+0.003*[#  25]+0.003*[#  29]+0.003*[#  33]+
          +0.002*[#   2]+0.002*[#   6]+0.002*[#  10]+
    |psi|^2 = 0.983
==== e(  20) =     1.36891 eV ==== 
     psi = 0.067*[#  14]+0.067*[#  18]+0.067*[#  22]+0.067*[#  26]+0.067*[#  30]+
          +0.067*[#  34]+0.056*[#  15]+0.056*[#  19]+0.055*[#  28]+0.055*[#  36]+
          +0.046*[#  24]+0.046*[#  32]+0.043*[#  23]+0.043*[#  31]+0.035*[#  27]+
          +0.035*[#  35]+0.034*[#  16]+0.034*[#  20]+0.004*[#  12]+0.004*[#   2]+
          +0.004*[#   6]+0.004*[#  10]+0.003*[#   3]+0.003*[#   7]+0.002*[#  13]+
          +0.002*[#  17]+0.002*[#  21]+0.002*[#  25]+0.002*[#  29]+0.002*[#  33]+
          +0.002*[#   4]+0.002*[#   8]+
    |psi|^2 = 0.983
==== e(  21) =     1.60925 eV ==== 
     psi = 0.106*[#  28]+0.106*[#  36]+0.102*[#  15]+0.102*[#  19]+0.068*[#  23]+
          +0.068*[#  31]+0.059*[#  24]+0.059*[#  32]+0.034*[#  14]+0.034*[#  18]+
          +0.034*[#  22]+0.034*[#  26]+0.034*[#  30]+0.034*[#  34]+0.025*[#  16]+
          +0.025*[#  20]+0.020*[#  27]+0.020*[#  35]+0.003*[#  12]+0.002*[#   3]+
          +0.002*[#   7]+0.002*[#   2]+0.002*[#   6]+0.002*[#  10]+0.001*[#  13]+
          +0.001*[#  17]+0.001*[#  21]+0.001*[#  25]+0.001*[#  29]+0.001*[#  33]+
    |psi|^2 = 0.982
==== e(  22) =     1.81651 eV ==== 
     psi = 0.081*[#  15]+0.081*[#  19]+0.071*[#  24]+0.071*[#  32]+0.066*[#  14]+
          +0.066*[#  18]+0.066*[#  22]+0.066*[#  26]+0.066*[#  30]+0.066*[#  34]+
          +0.057*[#  28]+0.057*[#  36]+0.037*[#  27]+0.037*[#  35]+0.023*[#  23]+
          +0.023*[#  31]+0.013*[#  16]+0.013*[#  20]+0.005*[#   2]+0.005*[#   6]+
          +0.005*[#  10]+0.003*[#  11]+0.002*[#   4]+0.002*[#   8]+0.002*[#   3]+
          +0.002*[#   7]+0.001*[#  12]+0.001*[#  13]+0.001*[#  17]+0.001*[#  21]+
          +0.001*[#  25]+0.001*[#  29]+0.001*[#  33]+
    |psi|^2 = 0.988
==== e(  23) =     1.98775 eV ==== 
     psi = 0.094*[#  15]+0.094*[#  19]+0.080*[#  28]+0.080*[#  36]+0.069*[#  24]+
          +0.069*[#  32]+0.049*[#  14]+0.049*[#  18]+0.049*[#  22]+0.049*[#  26]+
          +0.049*[#  30]+0.049*[#  34]+0.041*[#  23]+0.041*[#  31]+0.030*[#  27]+
          +0.030*[#  35]+0.016*[#  16]+0.016*[#  20]+0.003*[#  12]+0.002*[#   3]+
          +0.002*[#   7]+0.002*[#   2]+0.002*[#   6]+0.002*[#  10]+0.002*[#  13]+
          +0.002*[#  17]+0.002*[#  21]+0.002*[#  25]+0.002*[#  29]+0.002*[#  33]+
          +0.001*[#   4]+0.001*[#   8]+
    |psi|^2 = 0.988
==== e(  24) =     2.27932 eV ==== 
     psi = 0.079*[#  24]+0.079*[#  32]+0.071*[#  15]+0.071*[#  19]+0.061*[#  27]+
          +0.061*[#  35]+0.057*[#  14]+0.057*[#  18]+0.057*[#  22]+0.057*[#  26]+
          +0.057*[#  30]+0.057*[#  34]+0.044*[#  28]+0.044*[#  36]+0.035*[#  16]+
          +0.035*[#  20]+0.027*[#  23]+0.027*[#  31]+0.001*[#   4]+0.001*[#   8]+
          +0.001*[#  11]+
    |psi|^2 = 0.990
==== e(  25) =    11.31083 eV ==== 
     psi = 0.115*[#   1]+0.115*[#   5]+0.115*[#   9]+0.035*[#  11]+0.034*[#   4]+
          +0.034*[#   8]+0.034*[#  13]+0.034*[#  17]+0.034*[#  21]+0.034*[#  25]+
          +0.034*[#  29]+0.034*[#  33]+0.033*[#   3]+0.033*[#   7]+0.032*[#  12]+
          +0.030*[#   2]+0.030*[#   6]+0.030*[#  10]+0.006*[#  28]+0.006*[#  36]+
          +0.005*[#  15]+0.005*[#  19]+0.005*[#  23]+0.005*[#  31]+0.005*[#  14]+
          +0.005*[#  18]+0.005*[#  22]+0.005*[#  26]+0.005*[#  30]+0.005*[#  34]+
          +0.004*[#  16]+0.004*[#  20]+0.004*[#  24]+0.004*[#  32]+0.003*[#  27]+
          +0.003*[#  35]+
    |psi|^2 = 0.931
==== e(  26) =    11.80070 eV ==== 
     psi = 0.080*[#   1]+0.080*[#   5]+0.080*[#   9]+0.058*[#  12]+0.054*[#   3]+
          +0.054*[#   7]+0.046*[#   4]+0.046*[#   8]+0.042*[#  11]+0.031*[#   2]+
          +0.031*[#   6]+0.031*[#  10]+0.031*[#  13]+0.031*[#  17]+0.031*[#  21]+
          +0.031*[#  25]+0.031*[#  29]+0.031*[#  33]+0.007*[#  23]+0.007*[#  31]+
          +0.006*[#  28]+0.006*[#  36]+0.005*[#  16]+0.005*[#  20]+0.005*[#  15]+
          +0.005*[#  19]+0.004*[#  27]+0.004*[#  35]+0.003*[#  24]+0.003*[#  32]+
          +0.003*[#  14]+0.003*[#  18]+0.003*[#  22]+0.003*[#  26]+0.003*[#  30]+
          +0.003*[#  34]+
    |psi|^2 = 0.896
==== e(  27) =    12.13054 eV ==== 
     psi = 0.089*[#  12]+0.079*[#   3]+0.079*[#   7]+0.060*[#   4]+0.060*[#   8]+
          +0.050*[#  11]+0.041*[#   2]+0.041*[#   6]+0.041*[#  10]+0.022*[#  13]+
          +0.022*[#  17]+0.022*[#  21]+0.022*[#  25]+0.022*[#  29]+0.022*[#  33]+
          +0.018*[#   1]+0.018*[#   5]+0.018*[#   9]+0.005*[#  28]+0.005*[#  36]+
          +0.005*[#  15]+0.005*[#  19]+0.005*[#  23]+0.005*[#  31]+0.004*[#  24]+
          +0.004*[#  32]+0.004*[#  16]+0.004*[#  20]+0.004*[#  27]+0.004*[#  35]+
          +0.003*[#  14]+0.003*[#  18]+0.003*[#  22]+0.003*[#  26]+0.003*[#  30]+
          +0.003*[#  34]+
    |psi|^2 = 0.796
==== e(  28) =    12.54977 eV ==== 
     psi = 0.074*[#  11]+0.065*[#   4]+0.065*[#   8]+0.060*[#   2]+0.060*[#   6]+
          +0.060*[#  10]+0.047*[#   3]+0.047*[#   7]+0.038*[#  12]+0.015*[#  13]+
          +0.015*[#  17]+0.015*[#  21]+0.015*[#  25]+0.015*[#  29]+0.015*[#  33]+
          +0.009*[#  28]+0.009*[#  36]+0.009*[#  23]+0.009*[#  31]+0.009*[#  14]+
          +0.009*[#  18]+0.009*[#  22]+0.009*[#  26]+0.009*[#  30]+0.009*[#  34]+
          +0.008*[#  15]+0.008*[#  19]+0.008*[#   1]+0.008*[#   5]+0.008*[#   9]+
          +0.006*[#  16]+0.006*[#  20]+0.006*[#  24]+0.006*[#  32]+0.005*[#  27]+
          +0.005*[#  35]+
    |psi|^2 = 0.766
==== e(  29) =    12.90390 eV ==== 
     psi = 0.064*[#   2]+0.064*[#   6]+0.064*[#  10]+0.062*[#  12]+0.051*[#   3]+
          +0.051*[#   7]+0.031*[#   1]+0.031*[#   5]+0.031*[#   9]+0.031*[#   4]+
          +0.031*[#   8]+0.020*[#  11]+0.013*[#  13]+0.013*[#  17]+0.013*[#  21]+
          +0.013*[#  25]+0.013*[#  29]+0.013*[#  33]+0.007*[#  16]+0.007*[#  20]+
          +0.007*[#  27]+0.007*[#  35]+0.007*[#  23]+0.007*[#  31]+0.006*[#  24]+
          +0.006*[#  32]+0.006*[#  28]+0.006*[#  36]+0.006*[#  15]+0.006*[#  19]+
          +0.003*[#  14]+0.003*[#  18]+0.003*[#  22]+0.003*[#  26]+0.003*[#  30]+
          +0.003*[#  34]+
    |psi|^2 = 0.701

 k =  -0.0721687836 -0.3750000000  0.1136237514
==== e(   1) =   -16.59933 eV ==== 
     psi = 0.110*[#  13]+0.110*[#  17]+0.110*[#  21]+0.110*[#  25]+0.110*[#  29]+
          +0.110*[#  33]+0.084*[#   1]+0.084*[#   5]+0.084*[#   9]+0.014*[#  11]+
          +0.011*[#   4]+0.011*[#   8]+0.007*[#   3]+0.007*[#   7]+0.005*[#  12]+
          +0.002*[#   2]+0.002*[#   6]+0.002*[#  10]+0.002*[#  23]+0.002*[#  28]+
          +0.002*[#  31]+0.002*[#  36]+0.001*[#  15]+0.001*[#  16]+0.001*[#  19]+
          +0.001*[#  20]+
    |psi|^2 = 0.994
==== e(   2) =   -15.78654 eV ==== 
     psi = 0.118*[#  13]+0.118*[#  17]+0.118*[#  21]+0.118*[#  25]+0.118*[#  29]+
          +0.118*[#  33]+0.048*[#   1]+0.048*[#   5]+0.048*[#   9]+0.015*[#   2]+
          +0.015*[#   6]+0.015*[#  10]+0.014*[#  11]+0.013*[#   4]+0.013*[#   8]+
          +0.011*[#   3]+0.011*[#   7]+0.010*[#  12]+0.002*[#  23]+0.002*[#  31]+
          +0.002*[#  16]+0.002*[#  20]+0.002*[#  28]+0.002*[#  36]+0.001*[#  14]+
          +0.001*[#  18]+0.001*[#  22]+0.001*[#  26]+0.001*[#  27]+0.001*[#  30]+
          +0.001*[#  34]+0.001*[#  35]+
    |psi|^2 = 0.994
==== e(   3) =   -15.33775 eV ==== 
     psi = 0.123*[#  13]+0.123*[#  17]+0.123*[#  21]+0.123*[#  25]+0.123*[#  29]+
          +0.123*[#  33]+0.028*[#   1]+0.028*[#   5]+0.028*[#   9]+0.023*[#  12]+
          +0.020*[#   3]+0.020*[#   7]+0.019*[#   2]+0.019*[#   6]+0.019*[#  10]+
          +0.013*[#   4]+0.013*[#   8]+0.010*[#  11]+0.002*[#  16]+0.002*[#  20]+
          +0.002*[#  23]+0.002*[#  31]+0.001*[#  28]+0.001*[#  36]+0.001*[#  14]+
          +0.001*[#  18]+0.001*[#  22]+0.001*[#  26]+0.001*[#  27]+0.001*[#  30]+
          +0.001*[#  34]+0.001*[#  35]+
    |psi|^2 = 0.994
==== e(   4) =   -14.79383 eV ==== 
     psi = 0.131*[#  13]+0.131*[#  17]+0.131*[#  21]+0.131*[#  25]+0.131*[#  29]+
          +0.131*[#  33]+0.036*[#   2]+0.036*[#   6]+0.036*[#  10]+0.022*[#  11]+
          +0.018*[#   4]+0.018*[#   8]+0.011*[#   3]+0.011*[#   7]+0.008*[#  12]+
    |psi|^2 = 0.993
==== e(   5) =   -14.76122 eV ==== 
     psi = 0.132*[#  13]+0.132*[#  17]+0.132*[#  21]+0.132*[#  25]+0.132*[#  29]+
          +0.132*[#  33]+0.028*[#  12]+0.026*[#   3]+0.026*[#   7]+0.022*[#   4]+
          +0.022*[#   8]+0.019*[#  11]+0.016*[#   2]+0.016*[#   6]+0.016*[#  10]+
    |psi|^2 = 0.992
==== e(   6) =   -14.73287 eV ==== 
     psi = 0.133*[#  13]+0.133*[#  17]+0.133*[#  21]+0.133*[#  25]+0.133*[#  29]+
          +0.133*[#  33]+0.027*[#  12]+0.027*[#   3]+0.027*[#   7]+0.025*[#   4]+
          +0.025*[#   8]+0.024*[#  11]+0.011*[#   2]+0.011*[#   6]+0.011*[#  10]+
    |psi|^2 = 0.993
==== e(   7) =    -5.90036 eV ==== 
     psi = 0.075*[#   1]+0.075*[#   5]+0.075*[#   9]+0.074*[#  16]+0.074*[#  20]+
          +0.063*[#  27]+0.063*[#  35]+0.049*[#  23]+0.049*[#  31]+0.040*[#  14]+
          +0.040*[#  18]+0.040*[#  22]+0.040*[#  26]+0.040*[#  30]+0.040*[#  34]+
          +0.027*[#  24]+0.027*[#  32]+0.013*[#  28]+0.013*[#  36]+0.008*[#  12]+
          +0.007*[#   3]+0.007*[#   7]+0.005*[#  13]+0.005*[#  17]+0.005*[#  21]+
          +0.005*[#  25]+0.005*[#  29]+0.005*[#  33]+0.004*[#   2]+0.004*[#   6]+
          +0.004*[#  10]+0.003*[#   4]+0.003*[#   8]+0.002*[#  15]+0.002*[#  19]+
          +0.002*[#  11]+
    |psi|^2 = 0.992
==== e(   8) =    -4.98601 eV ==== 
     psi = 0.075*[#  16]+0.075*[#  20]+0.064*[#  27]+0.064*[#  35]+0.056*[#   1]+
          +0.056*[#   5]+0.056*[#   9]+0.049*[#  23]+0.049*[#  31]+0.041*[#  14]+
          +0.041*[#  18]+0.041*[#  22]+0.041*[#  26]+0.041*[#  30]+0.041*[#  34]+
          +0.028*[#  24]+0.028*[#  32]+0.013*[#  28]+0.013*[#  36]+0.010*[#  12]+
          +0.009*[#   2]+0.009*[#   6]+0.009*[#  10]+0.009*[#   3]+0.009*[#   7]+
          +0.007*[#  13]+0.007*[#  17]+0.007*[#  21]+0.007*[#  25]+0.007*[#  29]+
          +0.007*[#  33]+0.006*[#   4]+0.006*[#   8]+0.005*[#  11]+0.002*[#  15]+
          +0.002*[#  19]+
    |psi|^2 = 0.990
==== e(   9) =    -3.37695 eV ==== 
     psi = 0.067*[#  16]+0.067*[#  20]+0.059*[#  27]+0.059*[#  35]+0.049*[#  14]+
          +0.049*[#  18]+0.049*[#  22]+0.049*[#  26]+0.049*[#  30]+0.049*[#  34]+
          +0.046*[#  23]+0.046*[#  31]+0.029*[#  24]+0.029*[#  32]+0.023*[#  12]+
          +0.021*[#   3]+0.021*[#   7]+0.019*[#   1]+0.019*[#   5]+0.019*[#   9]+
          +0.018*[#   4]+0.018*[#   8]+0.017*[#  28]+0.017*[#  36]+0.016*[#  11]+
          +0.014*[#   2]+0.014*[#   6]+0.014*[#  10]+0.008*[#  15]+0.008*[#  19]+
          +0.003*[#  13]+0.003*[#  17]+0.003*[#  21]+0.003*[#  25]+0.003*[#  29]+
          +0.003*[#  33]+
    |psi|^2 = 0.987
==== e(  10) =    -2.90501 eV ==== 
     psi = 0.074*[#  16]+0.074*[#  20]+0.060*[#  27]+0.060*[#  35]+0.056*[#  23]+
          +0.056*[#  31]+0.045*[#  14]+0.045*[#  18]+0.045*[#  22]+0.045*[#  26]+
          +0.045*[#  30]+0.045*[#  34]+0.042*[#  12]+0.034*[#   3]+0.034*[#   7]+
          +0.027*[#  24]+0.027*[#  32]+0.023*[#  28]+0.023*[#  36]+0.020*[#   4]+
          +0.020*[#   8]+0.019*[#   2]+0.019*[#   6]+0.019*[#  10]+0.012*[#  11]+
          +0.009*[#  15]+0.009*[#  19]+
    |psi|^2 = 0.987
==== e(  11) =    -2.69335 eV ==== 
     psi = 0.093*[#  16]+0.093*[#  20]+0.073*[#  23]+0.073*[#  31]+0.068*[#  27]+
          +0.068*[#  35]+0.033*[#  14]+0.033*[#  18]+0.033*[#  22]+0.033*[#  26]+
          +0.033*[#  30]+0.033*[#  34]+0.032*[#   2]+0.032*[#   6]+0.032*[#  10]+
          +0.029*[#  28]+0.029*[#  36]+0.024*[#  24]+0.024*[#  32]+0.020*[#  12]+
          +0.018*[#   3]+0.018*[#   7]+0.016*[#   4]+0.016*[#   8]+0.014*[#  11]+
          +0.004*[#  15]+0.004*[#  19]+0.003*[#   1]+0.003*[#   5]+0.003*[#   9]+
          +0.001*[#  13]+0.001*[#  17]+0.001*[#  21]+0.001*[#  25]+0.001*[#  29]+
          +0.001*[#  33]+
    |psi|^2 = 0.987
==== e(  12) =    -2.26690 eV ==== 
     psi = 0.076*[#  16]+0.076*[#  20]+0.066*[#  27]+0.066*[#  35]+0.051*[#  14]+
          +0.051*[#  18]+0.051*[#  22]+0.051*[#  23]+0.051*[#  26]+0.051*[#  30]+
          +0.051*[#  31]+0.051*[#  34]+0.031*[#  11]+0.031*[#  24]+0.031*[#  32]+
          +0.025*[#   4]+0.025*[#   8]+0.023*[#   2]+0.023*[#   6]+0.023*[#  10]+
          +0.016*[#  28]+0.016*[#  36]+0.012*[#   3]+0.012*[#   7]+0.006*[#  15]+
          +0.006*[#  19]+0.006*[#  12]+0.001*[#   1]+0.001*[#   5]+0.001*[#   9]+
    |psi|^2 = 0.987
==== e(  13) =    -0.62090 eV ==== 
     psi = 0.056*[#  15]+0.056*[#  19]+0.052*[#  14]+0.052*[#  18]+0.052*[#  22]+
          +0.052*[#  26]+0.052*[#  30]+0.052*[#  34]+0.051*[#  24]+0.051*[#  32]+
          +0.047*[#  28]+0.047*[#  36]+0.036*[#  27]+0.036*[#  35]+0.032*[#  23]+
          +0.032*[#  31]+0.028*[#  11]+0.027*[#  16]+0.027*[#  20]+0.021*[#   4]+
          +0.021*[#   8]+0.012*[#   2]+0.012*[#   6]+0.012*[#  10]+0.008*[#  13]+
          +0.008*[#  17]+0.008*[#  21]+0.008*[#  25]+0.008*[#  29]+0.008*[#  33]+
          +0.008*[#   3]+0.008*[#   7]+0.001*[#  12]+
    |psi|^2 = 0.985
==== e(  14) =    -0.27176 eV ==== 
     psi = 0.078*[#  15]+0.078*[#  19]+0.064*[#  24]+0.064*[#  32]+0.064*[#  28]+
          +0.064*[#  36]+0.046*[#  14]+0.046*[#  18]+0.046*[#  22]+0.046*[#  26]+
          +0.046*[#  30]+0.046*[#  34]+0.037*[#  27]+0.037*[#  35]+0.037*[#  23]+
          +0.037*[#  31]+0.023*[#  16]+0.023*[#  20]+0.012*[#  11]+0.010*[#   4]+
          +0.010*[#   8]+0.007*[#   3]+0.007*[#   7]+0.005*[#  13]+0.005*[#  17]+
          +0.005*[#  21]+0.005*[#  25]+0.005*[#  29]+0.005*[#  33]+0.005*[#  12]+
          +0.003*[#   2]+0.003*[#   6]+0.003*[#  10]+
    |psi|^2 = 0.979
==== e(  15) =    -0.11148 eV ==== 
     psi = 0.059*[#  15]+0.059*[#  19]+0.056*[#  24]+0.056*[#  32]+0.051*[#  28]+
          +0.051*[#  36]+0.049*[#  14]+0.049*[#  18]+0.049*[#  22]+0.049*[#  26]+
          +0.049*[#  30]+0.049*[#  34]+0.046*[#  27]+0.046*[#  35]+0.041*[#  23]+
          +0.041*[#  31]+0.038*[#  16]+0.038*[#  20]+0.007*[#  13]+0.007*[#  17]+
          +0.007*[#  21]+0.007*[#  25]+0.007*[#  29]+0.007*[#  33]+0.006*[#  12]+
          +0.006*[#   3]+0.006*[#   7]+0.006*[#   4]+0.006*[#   8]+0.006*[#  11]+
          +0.005*[#   2]+0.005*[#   6]+0.005*[#  10]+0.002*[#   1]+0.002*[#   5]+
          +0.002*[#   9]+
    |psi|^2 = 0.977
==== e(  16) =     0.14949 eV ==== 
     psi = 0.094*[#  15]+0.094*[#  19]+0.092*[#  28]+0.092*[#  36]+0.059*[#  24]+
          +0.059*[#  32]+0.055*[#  23]+0.055*[#  31]+0.035*[#  14]+0.035*[#  18]+
          +0.035*[#  22]+0.035*[#  26]+0.035*[#  30]+0.035*[#  34]+0.022*[#  27]+
          +0.022*[#  35]+0.020*[#  16]+0.020*[#  20]+0.009*[#  12]+0.009*[#   3]+
          +0.009*[#   7]+0.008*[#   4]+0.008*[#   8]+0.007*[#  11]+0.005*[#   2]+
          +0.005*[#   6]+0.005*[#  10]+0.004*[#  13]+0.004*[#  17]+0.004*[#  21]+
          +0.004*[#  25]+0.004*[#  29]+0.004*[#  33]+
    |psi|^2 = 0.979
==== e(  17) =     0.47733 eV ==== 
     psi = 0.077*[#  28]+0.077*[#  36]+0.076*[#  15]+0.076*[#  19]+0.056*[#  23]+
          +0.056*[#  31]+0.055*[#  24]+0.055*[#  32]+0.039*[#  14]+0.039*[#  18]+
          +0.039*[#  22]+0.039*[#  26]+0.039*[#  30]+0.039*[#  34]+0.035*[#  16]+
          +0.035*[#  20]+0.034*[#  27]+0.034*[#  35]+0.008*[#  11]+0.007*[#   2]+
          +0.007*[#   6]+0.007*[#  10]+0.006*[#   4]+0.006*[#   8]+0.005*[#  13]+
          +0.005*[#  17]+0.005*[#  21]+0.005*[#  25]+0.005*[#  29]+0.005*[#  33]+
          +0.004*[#   3]+0.004*[#   7]+0.003*[#  12]+
    |psi|^2 = 0.980
==== e(  18) =     0.87973 eV ==== 
     psi = 0.063*[#  14]+0.063*[#  18]+0.063*[#  22]+0.063*[#  26]+0.063*[#  30]+
          +0.063*[#  34]+0.051*[#  23]+0.051*[#  31]+0.049*[#  16]+0.049*[#  20]+
          +0.048*[#  28]+0.048*[#  36]+0.043*[#  27]+0.043*[#  35]+0.041*[#  15]+
          +0.041*[#  19]+0.039*[#  24]+0.039*[#  32]+0.007*[#   2]+0.007*[#   6]+
          +0.007*[#  10]+0.005*[#  11]+0.005*[#   4]+0.005*[#   8]+0.003*[#   3]+
          +0.003*[#   7]+0.003*[#  13]+0.003*[#  17]+0.003*[#  21]+0.003*[#  25]+
          +0.003*[#  29]+0.003*[#  33]+0.003*[#  12]+
    |psi|^2 = 0.981
==== e(  19) =     1.08604 eV ==== 
     psi = 0.071*[#  15]+0.071*[#  19]+0.069*[#  24]+0.069*[#  32]+0.063*[#  14]+
          +0.063*[#  18]+0.063*[#  22]+0.063*[#  26]+0.063*[#  30]+0.063*[#  34]+
          +0.049*[#  28]+0.049*[#  36]+0.045*[#  27]+0.045*[#  35]+0.026*[#  23]+
          +0.026*[#  31]+0.024*[#  16]+0.024*[#  20]+0.005*[#  12]+0.004*[#   3]+
          +0.004*[#   7]+0.004*[#   2]+0.004*[#   6]+0.004*[#  10]+0.002*[#   4]+
          +0.002*[#   8]+
    |psi|^2 = 0.979
==== e(  20) =     1.28923 eV ==== 
     psi = 0.093*[#  28]+0.093*[#  36]+0.086*[#  15]+0.086*[#  19]+0.066*[#  23]+
          +0.066*[#  31]+0.050*[#  24]+0.050*[#  32]+0.041*[#  14]+0.041*[#  18]+
          +0.041*[#  22]+0.041*[#  26]+0.041*[#  30]+0.041*[#  34]+0.030*[#  16]+
          +0.030*[#  20]+0.023*[#  27]+0.023*[#  35]+0.004*[#  12]+0.003*[#   2]+
          +0.003*[#   6]+0.003*[#  10]+0.003*[#   3]+0.003*[#   7]+0.002*[#  13]+
          +0.002*[#  17]+0.002*[#  21]+0.002*[#  25]+0.002*[#  29]+0.002*[#  33]+
          +0.002*[#   4]+0.002*[#   8]+
    |psi|^2 = 0.981
==== e(  21) =     1.52375 eV ==== 
     psi = 0.064*[#  24]+0.064*[#  32]+0.061*[#  27]+0.061*[#  35]+0.060*[#  15]+
          +0.060*[#  19]+0.055*[#  16]+0.055*[#  20]+0.053*[#  28]+0.053*[#  36]+
          +0.051*[#  23]+0.051*[#  31]+0.044*[#  14]+0.044*[#  18]+0.044*[#  22]+
          +0.044*[#  26]+0.044*[#  30]+0.044*[#  34]+0.003*[#  12]+0.003*[#   3]+
          +0.003*[#   7]+0.002*[#   4]+0.002*[#   8]+0.002*[#   2]+0.002*[#   6]+
          +0.002*[#  10]+0.002*[#  11]+0.002*[#  13]+0.002*[#  17]+0.002*[#  21]+
          +0.002*[#  25]+0.002*[#  29]+0.002*[#  33]+
    |psi|^2 = 0.983
==== e(  22) =     1.77725 eV ==== 
[...]
          +0.001*[#  32]+
    |psi|^2 = 0.763
==== e(  28) =    12.47148 eV ==== 
     psi = 0.139*[#  12]+0.112*[#   3]+0.112*[#   7]+0.056*[#   4]+0.056*[#   8]+
          +0.029*[#  11]+0.024*[#   1]+0.024*[#   5]+0.024*[#   9]+0.021*[#  13]+
          +0.021*[#  17]+0.021*[#  21]+0.021*[#  25]+0.021*[#  29]+0.021*[#  33]+
          +0.013*[#   2]+0.013*[#   6]+0.013*[#  10]+0.009*[#  15]+0.009*[#  19]+
          +0.009*[#  24]+0.009*[#  32]+0.006*[#  28]+0.006*[#  36]+0.006*[#  27]+
          +0.006*[#  35]+0.003*[#  23]+0.003*[#  31]+0.003*[#  14]+0.003*[#  16]+
          +0.003*[#  18]+0.003*[#  20]+0.003*[#  22]+0.003*[#  26]+0.003*[#  30]+
          +0.003*[#  34]+
    |psi|^2 = 0.826
==== e(  29) =    12.91335 eV ==== 
     psi = 0.165*[#   2]+0.165*[#   6]+0.165*[#  10]+0.019*[#  12]+0.014*[#   3]+
          +0.014*[#   7]+0.012*[#  13]+0.012*[#  17]+0.012*[#  21]+0.012*[#  25]+
          +0.012*[#  29]+0.012*[#  33]+0.011*[#  16]+0.011*[#  20]+0.011*[#  27]+
          +0.011*[#  35]+0.008*[#  23]+0.008*[#  31]+0.007*[#   1]+0.007*[#   5]+
          +0.007*[#   9]+0.007*[#  24]+0.007*[#  32]+0.006*[#   4]+0.006*[#   8]+
          +0.005*[#  14]+0.005*[#  18]+0.005*[#  22]+0.005*[#  26]+0.005*[#  30]+
          +0.005*[#  34]+0.004*[#  28]+0.004*[#  36]+0.003*[#  15]+0.003*[#  19]+
          +0.002*[#  11]+
    |psi|^2 = 0.770

 k =  -0.2165063509  0.3750000000  0.3408712542
==== e(   1) =   -16.41881 eV ==== 
     psi = 0.112*[#  13]+0.112*[#  17]+0.112*[#  21]+0.112*[#  25]+0.112*[#  29]+
          +0.112*[#  33]+0.078*[#   1]+0.078*[#   5]+0.078*[#   9]+0.010*[#   2]+
          +0.010*[#   6]+0.010*[#  10]+0.006*[#  12]+0.006*[#   3]+0.006*[#   7]+
          +0.005*[#   4]+0.005*[#   8]+0.005*[#  11]+0.002*[#  23]+0.002*[#  28]+
          +0.002*[#  31]+0.002*[#  36]+0.001*[#  16]+0.001*[#  20]+0.001*[#  15]+
          +0.001*[#  19]+0.001*[#  14]+0.001*[#  18]+0.001*[#  22]+0.001*[#  26]+
          +0.001*[#  30]+0.001*[#  34]+
    |psi|^2 = 0.995
==== e(   2) =   -16.00832 eV ==== 
     psi = 0.115*[#  13]+0.115*[#  17]+0.115*[#  21]+0.115*[#  25]+0.115*[#  29]+
          +0.115*[#  33]+0.058*[#   1]+0.058*[#   5]+0.058*[#   9]+0.013*[#   3]+
          +0.013*[#   7]+0.013*[#  12]+0.012*[#   4]+0.012*[#   8]+0.012*[#  11]+
          +0.010*[#   2]+0.010*[#   6]+0.010*[#  10]+0.002*[#  23]+0.002*[#  31]+
          +0.002*[#  16]+0.002*[#  20]+0.002*[#  28]+0.002*[#  36]+0.001*[#  14]+
          +0.001*[#  18]+0.001*[#  22]+0.001*[#  26]+0.001*[#  27]+0.001*[#  30]+
          +0.001*[#  34]+0.001*[#  35]+
    |psi|^2 = 0.994
==== e(   3) =   -15.31501 eV ==== 
     psi = 0.122*[#  13]+0.122*[#  17]+0.122*[#  21]+0.122*[#  25]+0.122*[#  29]+
          +0.122*[#  33]+0.033*[#  11]+0.027*[#   4]+0.027*[#   8]+0.024*[#   1]+
          +0.024*[#   5]+0.024*[#   9]+0.015*[#   3]+0.015*[#   7]+0.013*[#   2]+
          +0.013*[#   6]+0.013*[#  10]+0.010*[#  12]+0.002*[#  23]+0.002*[#  31]+
          +0.002*[#  16]+0.002*[#  20]+0.001*[#  28]+0.001*[#  36]+0.001*[#  27]+
          +0.001*[#  35]+
    |psi|^2 = 0.993
==== e(   4) =   -14.80733 eV ==== 
     psi = 0.131*[#  13]+0.131*[#  17]+0.131*[#  21]+0.131*[#  25]+0.131*[#  29]+
          +0.131*[#  33]+0.033*[#   2]+0.033*[#   6]+0.033*[#  10]+0.028*[#  11]+
          +0.022*[#   4]+0.022*[#   8]+0.010*[#   3]+0.010*[#   7]+0.004*[#  12]+
          +0.001*[#  28]+0.001*[#  36]+
    |psi|^2 = 0.992
==== e(   5) =   -14.75718 eV ==== 
     psi = 0.132*[#  13]+0.132*[#  17]+0.132*[#  21]+0.132*[#  25]+0.132*[#  29]+
          +0.132*[#  33]+0.030*[#  12]+0.030*[#   2]+0.030*[#   6]+0.030*[#  10]+
          +0.024*[#   3]+0.024*[#   7]+0.011*[#   4]+0.011*[#   8]+0.005*[#  11]+
    |psi|^2 = 0.993
==== e(   6) =   -14.73556 eV ==== 
     psi = 0.132*[#  13]+0.132*[#  17]+0.132*[#  21]+0.132*[#  25]+0.132*[#  29]+
          +0.132*[#  33]+0.039*[#  12]+0.034*[#   3]+0.034*[#   7]+0.024*[#   4]+
          +0.024*[#   8]+0.019*[#  11]+0.007*[#   2]+0.007*[#   6]+0.007*[#  10]+
    |psi|^2 = 0.993
==== e(   7) =    -5.95098 eV ==== 
     psi = 0.079*[#   1]+0.079*[#   5]+0.079*[#   9]+0.075*[#  16]+0.075*[#  20]+
          +0.064*[#  27]+0.064*[#  35]+0.049*[#  23]+0.049*[#  31]+0.039*[#  14]+
          +0.039*[#  18]+0.039*[#  22]+0.039*[#  26]+0.039*[#  30]+0.039*[#  34]+
          +0.027*[#  24]+0.027*[#  32]+0.012*[#  28]+0.012*[#  36]+0.005*[#  13]+
          +0.005*[#  17]+0.005*[#  21]+0.005*[#  25]+0.005*[#  29]+0.005*[#  33]+
          +0.004*[#   2]+0.004*[#   6]+0.004*[#  10]+0.004*[#  11]+0.004*[#   4]+
          +0.004*[#   8]+0.003*[#   3]+0.003*[#   7]+0.003*[#  12]+0.001*[#  15]+
          +0.001*[#  19]+
    |psi|^2 = 0.992
==== e(   8) =    -4.60894 eV ==== 
     psi = 0.074*[#  16]+0.074*[#  20]+0.064*[#  27]+0.064*[#  35]+0.049*[#  23]+
          +0.049*[#  31]+0.047*[#   1]+0.047*[#   5]+0.047*[#   9]+0.042*[#  14]+
          +0.042*[#  18]+0.042*[#  22]+0.042*[#  26]+0.042*[#  30]+0.042*[#  34]+
          +0.028*[#  24]+0.028*[#  32]+0.019*[#  12]+0.015*[#   3]+0.015*[#   7]+
          +0.014*[#  28]+0.014*[#  36]+0.008*[#   2]+0.008*[#   6]+0.008*[#  10]+
          +0.007*[#   4]+0.007*[#   8]+0.007*[#  13]+0.007*[#  17]+0.007*[#  21]+
          +0.007*[#  25]+0.007*[#  29]+0.007*[#  33]+0.004*[#  11]+0.003*[#  15]+
          +0.003*[#  19]+
    |psi|^2 = 0.989
==== e(   9) =    -3.77434 eV ==== 
     psi = 0.077*[#  16]+0.077*[#  20]+0.063*[#  27]+0.063*[#  35]+0.056*[#  23]+
          +0.056*[#  31]+0.041*[#  14]+0.041*[#  18]+0.041*[#  22]+0.041*[#  26]+
          +0.041*[#  30]+0.041*[#  34]+0.029*[#  12]+0.027*[#  24]+0.027*[#  32]+
          +0.026*[#   1]+0.026*[#   5]+0.026*[#   9]+0.023*[#   3]+0.023*[#   7]+
          +0.020*[#  28]+0.020*[#  36]+0.013*[#   2]+0.013*[#   6]+0.013*[#  10]+
          +0.011*[#   4]+0.011*[#   8]+0.006*[#  15]+0.006*[#  19]+0.005*[#  13]+
          +0.005*[#  17]+0.005*[#  21]+0.005*[#  25]+0.005*[#  29]+0.005*[#  33]+
          +0.005*[#  11]+
    |psi|^2 = 0.988
==== e(  10) =    -2.86680 eV ==== 
     psi = 0.059*[#  14]+0.059*[#  18]+0.059*[#  22]+0.059*[#  26]+0.059*[#  30]+
          +0.059*[#  34]+0.054*[#  16]+0.054*[#  20]+0.051*[#  27]+0.051*[#  35]+
          +0.038*[#  12]+0.037*[#  23]+0.037*[#  31]+0.035*[#   3]+0.035*[#   7]+
          +0.031*[#  24]+0.031*[#  32]+0.028*[#   4]+0.028*[#   8]+0.024*[#  11]+
          +0.018*[#  28]+0.018*[#  36]+0.015*[#  15]+0.015*[#  19]+0.009*[#   2]+
          +0.009*[#   6]+0.009*[#  10]+
    |psi|^2 = 0.986
==== e(  11) =    -2.52756 eV ==== 
     psi = 0.088*[#  16]+0.088*[#  20]+0.071*[#  23]+0.071*[#  31]+0.066*[#  27]+
          +0.066*[#  35]+0.033*[#  14]+0.033*[#  18]+0.033*[#  22]+0.033*[#  26]+
          +0.033*[#  30]+0.033*[#  34]+0.032*[#  28]+0.032*[#  36]+0.028*[#   2]+
          +0.028*[#   6]+0.028*[#  10]+0.027*[#  24]+0.027*[#  32]+0.023*[#  11]+
          +0.021*[#   4]+0.021*[#   8]+0.017*[#   3]+0.017*[#   7]+0.015*[#  12]+
          +0.010*[#  15]+0.010*[#  19]+
    |psi|^2 = 0.987
==== e(  12) =    -2.34362 eV ==== 
     psi = 0.090*[#  16]+0.090*[#  20]+0.074*[#  27]+0.074*[#  35]+0.062*[#  23]+
          +0.062*[#  31]+0.040*[#  14]+0.040*[#  18]+0.040*[#  22]+0.040*[#  26]+
          +0.040*[#  30]+0.040*[#  34]+0.034*[#   2]+0.034*[#   6]+0.034*[#  10]+
          +0.031*[#  24]+0.031*[#  32]+0.021*[#  11]+0.018*[#  28]+0.018*[#  36]+
          +0.017*[#   4]+0.017*[#   8]+0.009*[#   3]+0.009*[#   7]+0.005*[#  12]+
          +0.002*[#  15]+0.002*[#  19]+0.002*[#   1]+0.002*[#   5]+0.002*[#   9]+
          +0.001*[#  13]+0.001*[#  17]+0.001*[#  21]+0.001*[#  25]+0.001*[#  29]+
          +0.001*[#  33]+
    |psi|^2 = 0.986
==== e(  13) =    -0.66418 eV ==== 
     psi = 0.056*[#  14]+0.056*[#  18]+0.056*[#  22]+0.056*[#  26]+0.056*[#  30]+
          +0.056*[#  34]+0.052*[#  24]+0.052*[#  32]+0.052*[#  15]+0.052*[#  19]+
          +0.038*[#  27]+0.038*[#  35]+0.037*[#  28]+0.037*[#  36]+0.023*[#  16]+
          +0.023*[#  20]+0.023*[#  23]+0.023*[#  31]+0.022*[#  11]+0.021*[#   2]+
          +0.021*[#   6]+0.021*[#  10]+0.017*[#   4]+0.017*[#   8]+0.009*[#  13]+
          +0.009*[#  17]+0.009*[#  21]+0.009*[#  25]+0.009*[#  29]+0.009*[#  33]+
          +0.008*[#   3]+0.008*[#   7]+0.003*[#  12]+
    |psi|^2 = 0.983
==== e(  14) =    -0.54634 eV ==== 
     psi = 0.065*[#  28]+0.065*[#  36]+0.057*[#  15]+0.057*[#  19]+0.051*[#  14]+
          +0.051*[#  18]+0.051*[#  22]+0.051*[#  26]+0.051*[#  30]+0.051*[#  34]+
          +0.048*[#  23]+0.048*[#  31]+0.033*[#  24]+0.033*[#  32]+0.024*[#  11]+
          +0.024*[#  16]+0.024*[#  20]+0.020*[#   4]+0.020*[#   8]+0.016*[#  27]+
          +0.016*[#  35]+0.011*[#   2]+0.011*[#   6]+0.011*[#  10]+0.011*[#   3]+
          +0.011*[#   7]+0.010*[#  13]+0.010*[#  17]+0.010*[#  21]+0.010*[#  25]+
          +0.010*[#  29]+0.010*[#  33]+0.006*[#  12]+
    |psi|^2 = 0.982
==== e(  15) =     0.09086 eV ==== 
     psi = 0.103*[#  28]+0.103*[#  36]+0.102*[#  15]+0.102*[#  19]+0.071*[#  23]+
          +0.071*[#  31]+0.068*[#  24]+0.068*[#  32]+0.037*[#  16]+0.037*[#  20]+
          +0.036*[#  27]+0.036*[#  35]+0.016*[#  14]+0.016*[#  18]+0.016*[#  22]+
          +0.016*[#  26]+0.016*[#  30]+0.016*[#  34]+0.008*[#  11]+0.007*[#   4]+
          +0.007*[#   8]+0.003*[#   3]+0.003*[#   7]+0.003*[#  13]+0.003*[#  17]+
          +0.003*[#  21]+0.003*[#  25]+0.003*[#  29]+0.003*[#  33]+0.002*[#  12]+
    |psi|^2 = 0.977
==== e(  16) =     0.19565 eV ==== 
     psi = 0.080*[#  14]+0.080*[#  18]+0.080*[#  22]+0.080*[#  26]+0.080*[#  30]+
          +0.080*[#  34]+0.051*[#  27]+0.051*[#  35]+0.049*[#  24]+0.049*[#  32]+
          +0.040*[#  16]+0.040*[#  20]+0.035*[#  15]+0.035*[#  19]+0.027*[#  23]+
          +0.027*[#  31]+0.024*[#  28]+0.024*[#  36]+0.006*[#  12]+0.005*[#   3]+
          +0.005*[#   7]+0.003*[#   4]+0.003*[#   8]+0.003*[#  13]+0.003*[#  17]+
          +0.003*[#  21]+0.003*[#  25]+0.003*[#  29]+0.003*[#  33]+0.002*[#  11]+
    |psi|^2 = 0.974
==== e(  17) =     0.45873 eV ==== 
     psi = 0.101*[#  15]+0.101*[#  19]+0.087*[#  24]+0.087*[#  32]+0.080*[#  28]+
          +0.080*[#  36]+0.053*[#  27]+0.053*[#  35]+0.046*[#  23]+0.046*[#  31]+
          +0.032*[#  16]+0.032*[#  20]+0.021*[#  14]+0.021*[#  18]+0.021*[#  22]+
          +0.021*[#  26]+0.021*[#  30]+0.021*[#  34]+0.005*[#   2]+0.005*[#   6]+
          +0.005*[#  10]+0.004*[#  12]+0.004*[#   3]+0.004*[#   7]+0.003*[#   4]+
          +0.003*[#   8]+0.003*[#  13]+0.003*[#  17]+0.003*[#  21]+0.003*[#  25]+
          +0.003*[#  29]+0.003*[#  33]+0.002*[#  11]+
    |psi|^2 = 0.976
==== e(  18) =     1.01466 eV ==== 
     psi = 0.071*[#  23]+0.071*[#  31]+0.064*[#  28]+0.064*[#  36]+0.057*[#  16]+
          +0.057*[#  20]+0.056*[#  14]+0.056*[#  18]+0.056*[#  22]+0.056*[#  26]+
          +0.056*[#  30]+0.056*[#  34]+0.042*[#  15]+0.042*[#  19]+0.035*[#  27]+
          +0.035*[#  35]+0.028*[#  24]+0.028*[#  32]+0.006*[#  12]+0.005*[#   3]+
          +0.005*[#   7]+0.003*[#  13]+0.003*[#  17]+0.003*[#  21]+0.003*[#  25]+
          +0.003*[#  29]+0.003*[#  33]+0.003*[#   4]+0.003*[#   8]+0.002*[#  11]+
          +0.002*[#   2]+0.002*[#   6]+0.002*[#  10]+
    |psi|^2 = 0.979
==== e(  19) =     1.15862 eV ==== 
     psi = 0.085*[#  14]+0.085*[#  18]+0.085*[#  22]+0.085*[#  26]+0.085*[#  30]+
          +0.085*[#  34]+0.061*[#  24]+0.061*[#  32]+0.053*[#  27]+0.053*[#  35]+
          +0.044*[#  15]+0.044*[#  19]+0.029*[#  16]+0.029*[#  20]+0.020*[#  28]+
          +0.020*[#  36]+0.012*[#  23]+0.012*[#  31]+0.004*[#   2]+0.004*[#   6]+
          +0.004*[#  10]+0.002*[#   3]+0.002*[#   7]+0.002*[#  12]+0.002*[#   4]+
          +0.002*[#   8]+0.002*[#  11]+0.002*[#  13]+0.002*[#  17]+0.002*[#  21]+
          +0.002*[#  25]+0.002*[#  29]+0.002*[#  33]+
    |psi|^2 = 0.981
==== e(  20) =     1.37883 eV ==== 
     psi = 0.113*[#  15]+0.113*[#  19]+0.109*[#  28]+0.109*[#  36]+0.070*[#  24]+
          +0.070*[#  32]+0.062*[#  23]+0.062*[#  31]+0.026*[#  14]+0.026*[#  18]+
          +0.026*[#  22]+0.026*[#  26]+0.026*[#  30]+0.026*[#  34]+0.023*[#  27]+
          +0.023*[#  35]+0.019*[#  16]+0.019*[#  20]+0.006*[#  12]+0.005*[#   3]+
          +0.005*[#   7]+0.003*[#   4]+0.003*[#   8]+0.002*[#  11]+0.001*[#  13]+
          +0.001*[#  17]+0.001*[#  21]+0.001*[#  25]+0.001*[#  29]+0.001*[#  33]+
    |psi|^2 = 0.980
==== e(  21) =     1.57036 eV ==== 
     psi = 0.088*[#  15]+0.088*[#  19]+0.078*[#  24]+0.078*[#  32]+0.064*[#  28]+
          +0.064*[#  36]+0.048*[#  14]+0.048*[#  18]+0.048*[#  22]+0.048*[#  26]+
          +0.048*[#  30]+0.048*[#  34]+0.044*[#  27]+0.044*[#  35]+0.029*[#  23]+
          +0.029*[#  31]+0.019*[#  16]+0.019*[#  20]+0.005*[#   2]+0.005*[#   6]+
          +0.005*[#  10]+0.005*[#  12]+0.004*[#   3]+0.004*[#   7]+0.004*[#   4]+
          +0.004*[#   8]+0.003*[#  11]+0.002*[#  13]+0.002*[#  17]+0.002*[#  21]+
          +0.002*[#  25]+0.002*[#  29]+0.002*[#  33]+
    |psi|^2 = 0.986
==== e(  22) =     1.71261 eV ==== 
     psi = 0.111*[#  28]+0.111*[#  36]+0.088*[#  15]+0.088*[#  19]+0.086*[#  23]+
          +0.086*[#  31]+0.040*[#  24]+0.040*[#  32]+0.038*[#  16]+0.038*[#  20]+
          +0.031*[#  14]+0.031*[#  18]+0.031*[#  22]+0.031*[#  26]+0.031*[#  30]+
          +0.031*[#  34]+0.015*[#  27]+0.015*[#  35]+0.004*[#  12]+0.003*[#  13]+
          +0.003*[#  17]+0.003*[#  21]+0.003*[#  25]+0.003*[#  29]+0.003*[#  33]+
          +0.003*[#   3]+0.003*[#   7]+0.002*[#   2]+0.002*[#   6]+0.002*[#  10]+
          +0.001*[#   4]+0.001*[#   8]+
    |psi|^2 = 0.987
==== e(  23) =     2.02324 eV ==== 
     psi = 0.086*[#  14]+0.086*[#  18]+0.086*[#  22]+0.086*[#  26]+0.086*[#  30]+
          +0.086*[#  34]+0.057*[#  15]+0.057*[#  19]+0.055*[#  24]+0.055*[#  32]+
          +0.040*[#  28]+0.040*[#  36]+0.035*[#  27]+0.035*[#  35]+0.020*[#  23]+
          +0.020*[#  31]+0.017*[#  16]+0.017*[#  20]+0.003*[#   2]+0.003*[#   6]+
          +0.003*[#  10]+0.002*[#  11]+0.001*[#   4]+0.001*[#   8]+
    |psi|^2 = 0.989
==== e(  24) =     2.41337 eV ==== 
     psi = 0.085*[#  24]+0.085*[#  32]+0.080*[#  15]+0.080*[#  19]+0.063*[#  27]+
          +0.063*[#  35]+0.051*[#  28]+0.051*[#  36]+0.050*[#  14]+0.050*[#  18]+
          +0.050*[#  22]+0.050*[#  26]+0.050*[#  30]+0.050*[#  34]+0.034*[#  16]+
          +0.034*[#  20]+0.028*[#  23]+0.028*[#  31]+
    |psi|^2 = 0.992
==== e(  25) =    10.90097 eV ==== 
     psi = 0.120*[#   1]+0.120*[#   5]+0.120*[#   9]+0.037*[#   2]+0.037*[#   6]+
          +0.037*[#  10]+0.035*[#  13]+0.035*[#  17]+0.035*[#  21]+0.035*[#  25]+
          +0.035*[#  29]+0.035*[#  33]+0.028*[#  12]+0.027*[#   3]+0.027*[#   7]+
          +0.025*[#   4]+0.025*[#   8]+0.024*[#  11]+0.007*[#  28]+0.007*[#  36]+
          +0.006*[#  23]+0.006*[#  31]+0.005*[#  15]+0.005*[#  19]+0.005*[#  14]+
          +0.005*[#  18]+0.005*[#  22]+0.005*[#  26]+0.005*[#  30]+0.005*[#  34]+
          +0.004*[#  16]+0.004*[#  20]+0.003*[#  24]+0.003*[#  32]+0.003*[#  27]+
          +0.003*[#  35]+
    |psi|^2 = 0.925
==== e(  26) =    11.92422 eV ==== 
     psi = 0.081*[#   1]+0.081*[#   5]+0.081*[#   9]+0.071*[#  12]+0.065*[#   3]+
          +0.065*[#   7]+0.051*[#   4]+0.051*[#   8]+0.045*[#  11]+0.028*[#  13]+
          +0.028*[#  17]+0.028*[#  21]+0.028*[#  25]+0.028*[#  29]+0.028*[#  33]+
          +0.016*[#   2]+0.016*[#   6]+0.016*[#  10]+0.007*[#  14]+0.007*[#  18]+
          +0.007*[#  22]+0.007*[#  26]+0.007*[#  30]+0.007*[#  34]+0.004*[#  23]+
          +0.004*[#  31]+0.004*[#  16]+0.004*[#  20]+0.003*[#  28]+0.003*[#  36]+
          +0.003*[#  27]+0.003*[#  35]+0.003*[#  15]+0.003*[#  19]+0.003*[#  24]+
          +0.003*[#  32]+
    |psi|^2 = 0.887
==== e(  27) =    12.04136 eV ==== 
     psi = 0.083*[#  11]+0.071*[#   2]+0.071*[#   6]+0.071*[#  10]+0.067*[#   4]+
          +0.067*[#   8]+0.037*[#   3]+0.037*[#   7]+0.021*[#  12]+0.017*[#  13]+
          +0.017*[#  17]+0.017*[#  21]+0.017*[#  25]+0.017*[#  29]+0.017*[#  33]+
          +0.010*[#   1]+0.010*[#   5]+0.010*[#   9]+0.008*[#  28]+0.008*[#  36]+
          +0.007*[#  23]+0.007*[#  31]+0.005*[#  14]+0.005*[#  18]+0.005*[#  22]+
          +0.005*[#  26]+0.005*[#  30]+0.005*[#  34]+0.005*[#  15]+0.005*[#  19]+
          +0.005*[#  16]+0.005*[#  20]+0.002*[#  24]+0.002*[#  32]+0.002*[#  27]+
          +0.002*[#  35]+
    |psi|^2 = 0.746
==== e(  28) =    12.52920 eV ==== 
     psi = 0.091*[#  12]+0.074*[#   3]+0.074*[#   7]+0.056*[#   2]+0.056*[#   6]+
          +0.056*[#  10]+0.041*[#   4]+0.041*[#   8]+0.025*[#  11]+0.015*[#  13]+
          +0.015*[#  17]+0.015*[#  21]+0.015*[#  25]+0.015*[#  29]+0.015*[#  33]+
          +0.006*[#  14]+0.006*[#  18]+0.006*[#  22]+0.006*[#  26]+0.006*[#  30]+
          +0.006*[#  34]+0.005*[#  24]+0.005*[#  32]+0.004*[#  27]+0.004*[#  35]+
          +0.004*[#  15]+0.004*[#  19]+0.004*[#   1]+0.004*[#   5]+0.004*[#   9]+
          +0.002*[#  16]+0.002*[#  20]+0.002*[#  28]+0.002*[#  36]+
    |psi|^2 = 0.691
==== e(  29) =    12.68797 eV ==== 
     psi = 0.120*[#   2]+0.120*[#   6]+0.120*[#  10]+0.053*[#  12]+0.043*[#   3]+
          +0.043*[#   7]+0.023*[#   4]+0.023*[#   8]+0.022*[#  13]+0.022*[#  17]+
          +0.022*[#  21]+0.022*[#  25]+0.022*[#  29]+0.022*[#  33]+0.018*[#   1]+
          +0.018*[#   5]+0.018*[#   9]+0.013*[#  11]+0.008*[#  24]+0.008*[#  27]+
          +0.008*[#  32]+0.008*[#  35]+0.007*[#  14]+0.007*[#  18]+0.007*[#  22]+
          +0.007*[#  26]+0.007*[#  30]+0.007*[#  34]+0.005*[#  15]+0.006*[#  16]+
          +0.005*[#  19]+0.006*[#  20]+0.003*[#  23]+0.003*[#  28]+0.003*[#  31]+
          +0.003*[#  36]+
    |psi|^2 = 0.847

Lowdin Charges: 

           1           1  0.63848729849447483        1.5230662067414362     
     Atom #   1: total charge =   2.1616, s =  0.6385, 
     Atom #   1: total charge =   2.1616, p =  1.5231, pz=  0.5103, px=  0.5061, py=  0.5066, 
           1           1  0.63848729849447483        1.5230662067414358     
     Atom #   2: total charge =   2.1616, s =  0.6385, 
     Atom #   2: total charge =   2.1616, p =  1.5231, pz=  0.5103, px=  0.5061, py=  0.5066, 
           1           1  0.63848729849447494        1.5230662067414376     
     Atom #   3: total charge =   2.1616, s =  0.6385, 
     Atom #   3: total charge =   2.1616, p =  1.5231, pz=  0.5103, px=  0.5069, py=  0.5059, 
           1           1   1.6089522021827860        5.2025950107593681     
     Atom #   4: total charge =   6.8115, s =  1.6090, 
     Atom #   4: total charge =   6.8115, p =  5.2026, pz=  1.7324, px=  1.8021, py=  1.6681, 
           1           1   1.6089522021827860        5.2025950107593664     
     Atom #   5: total charge =   6.8115, s =  1.6090, 
     Atom #   5: total charge =   6.8115, p =  5.2026, pz=  1.7324, px=  1.8021, py=  1.6681, 
           1           1   1.6089522021827860        5.2025950107593806     
     Atom #   6: total charge =   6.8115, s =  1.6090, 
     Atom #   6: total charge =   6.8115, p =  5.2026, pz=  1.7324, px=  1.7100, py=  1.7602, 
           1           1   1.6089522021827860        5.2025950107593788     
     Atom #   7: total charge =   6.8115, s =  1.6090, 
     Atom #   7: total charge =   6.8115, p =  5.2026, pz=  1.7324, px=  1.6932, py=  1.7770, 
           1           1   1.6089522021827860        5.2025950107593806     
     Atom #   8: total charge =   6.8115, s =  1.6090, 
     Atom #   8: total charge =   6.8115, p =  5.2026, pz=  1.7324, px=  1.7100, py=  1.7602, 
           1           1   1.6089522021827860        5.2025950107593797     
     Atom #   9: total charge =   6.8115, s =  1.6090, 
     Atom #   9: total charge =   6.8115, p =  5.2026, pz=  1.7324, px=  1.6932, py=  1.7770, 
     Spilling Parameter:   0.0135

     PROJWFC      :     10.97s CPU     11.08s WALL


   This run was terminated on:   2:56:19   7Jul2020            

=------------------------------------------------------------------------------=
   JOB DONE.
=------------------------------------------------------------------------------=
