
     Program PWSCF v.6.4.1 starts on  6Jul2020 at 11:44:21 

     This program is part of the open-source Quantum ESPRESSO suite
     for quantum simulation of materials; please cite
         "P. Giannozzi et al., J. Phys.:Condens. Matter 21 395502 (2009);
         "P. Giannozzi et al., J. Phys.:Condens. Matter 29 465901 (2017);
          URL http://www.quantum-espresso.org", 
     in publications or presentations arising from this work. More details at
     http://www.quantum-espresso.org/quote

     Parallel version (MPI), running on     1 processors

     MPI processes distributed on     1 nodes
     Reading input from scf.in

     Current dimensions of program PWSCF are:
     Max number of different atomic species (ntypx) = 10
     Max number of k-points (npk) =  40000
     Max angular momentum in pseudopotentials (lmaxx) =  3
               file Si.pbe-n-kjpaw_psl.1.0.0.UPF: wavefunction(s)  3S 3P renormalized
               file O.pbe-n-kjpaw_psl.1.0.0.UPF: wavefunction(s)  2S 2P renormalized

     Subspace diagonalization in iterative solution of the eigenvalue problem:
     a serial algorithm will be used

     Message from routine setup:
     DEPRECATED: symmetry with ibrav=0, use correct ibrav instead

     G-vector sticks info
     --------------------
     sticks:   dense  smooth     PW     G-vecs:    dense   smooth      PW
     Sum        2383    1189    313               103151    36345    5269



     bravais-lattice index     =            0
     lattice parameter (alat)  =       9.2861  a.u.
     unit-cell volume          =     762.9105 (a.u.)^3
     number of atoms/cell      =            9
     number of atomic types    =            2
     number of electrons       =        48.00
     number of Kohn-Sham states=           24
     kinetic-energy cutoff     =      50.0000  Ry
     charge density cutoff     =     400.0000  Ry
     convergence threshold     =      1.0E-06
     mixing beta               =       0.7000
     number of iterations used =            8  plain     mixing
     Exchange-correlation      = SLA PW PBX PBC ( 1  4  3  4 0 0)

     celldm(1)=   9.286114  celldm(2)=   0.000000  celldm(3)=   0.000000
     celldm(4)=   0.000000  celldm(5)=   0.000000  celldm(6)=   0.000000

     crystal axes: (cart. coord. in units of alat)
               a(1) = (   0.866025  -0.500000   0.000000 )  
               a(2) = (   0.000000   1.000000   0.000000 )  
               a(3) = (   0.000000   0.000000   1.100122 )  

     reciprocal axes: (cart. coord. in units 2 pi/alat)
               b(1) = (  1.154701  0.000000  0.000000 )  
               b(2) = (  0.577350  1.000000 -0.000000 )  
               b(3) = ( -0.000000  0.000000  0.908990 )  


     PseudoPot. # 1 for Si read from file:
     ./Si.pbe-n-kjpaw_psl.1.0.0.UPF
     MD5 check sum: c39c59da582df4a0d9f10159256ea34e
     Pseudo is Projector augmented-wave + core cor, Zval =  4.0
     Generated using "atomic" code by A. Dal Corso v.6.3
     Shape of augmentation charge: PSQ
     Using radial grid of 1141 points,  6 beta functions with: 
                l(1) =   0
                l(2) =   0
                l(3) =   1
                l(4) =   1
                l(5) =   2
                l(6) =   2
     Q(r) pseudized with 0 coefficients 


     PseudoPot. # 2 for O  read from file:
     ./O.pbe-n-kjpaw_psl.1.0.0.UPF
     MD5 check sum: e99d9cef9b487d1ca56f5b95ecd0fd7a
     Pseudo is Projector augmented-wave + core cor, Zval =  6.0
     Generated using "atomic" code by A. Dal Corso v.6.3
     Shape of augmentation charge: PSQ
     Using radial grid of 1095 points,  4 beta functions with: 
                l(1) =   0
                l(2) =   0
                l(3) =   1
                l(4) =   1
     Q(r) pseudized with 0 coefficients 


     atomic species   valence    mass     pseudopotential
        Si             4.00    28.08500     Si( 1.00)
        O              6.00    15.99900     O ( 1.00)

      6 Sym. Ops. (no inversion) found ( 4 have fractional translation)



   Cartesian axes

     site n.     atom                  positions (alat units)
         1           Si  tau(   1) = (   0.4069453  -0.2349500   0.3667074  )
         2           Si  tau(   2) = (   0.4590801   0.2650500   0.0000000  )
         3           Si  tau(   3) = (   0.0000000   0.4699000   0.7334147  )
         4           O   tau(   4) = (   0.3576685   0.0603000   0.2354261  )
         5           O   tau(   5) = (   0.5083569   0.5603000   0.1312812  )
         6           O   tau(   6) = (   0.1266129   0.6601000   0.4979886  )
         7           O   tau(   7) = (   0.6349698  -0.2204000   0.6021335  )
         8           O   tau(   8) = (   0.7394125   0.1601000   0.9688409  )
         9           O   tau(   9) = (   0.2310556   0.2796000   0.8646960  )

     number of k points=     3
                       cart. coord. in units 2pi/alat
        k(    1) = (   0.4330127   0.2500000   0.2272475), wk =   1.0000000
        k(    2) = (   0.1443376  -0.2500000   0.2272475), wk =   0.5000000
        k(    3) = (  -0.1443376   0.2500000   0.2272475), wk =   0.5000000

     Dense  grid:   103151 G-vectors     FFT dimensions: (  60,  60,  72)

     Smooth grid:    36345 G-vectors     FFT dimensions: (  45,  45,  45)

     Estimated max dynamical RAM per process >     384.03 MB

     Check: negative core charge=   -0.000002

     Initial potential from superposition of free atoms

     starting charge   47.99831, renormalised to   48.00000
     Starting wfcs are   36 randomized atomic wfcs
     Checking if some PAW data can be deallocated... 

     total cpu time spent up to now is       17.7 secs

     Self-consistent Calculation

     iteration #  1     ecut=    50.00 Ry     beta= 0.70
     Davidson diagonalization with overlap
     ethr =  1.00E-02,  avg # of iterations =  3.3

     total cpu time spent up to now is       29.7 secs

     total energy              =    -389.87140405 Ry
     Harris-Foulkes estimate   =    -391.66513948 Ry
     estimated scf accuracy    <       2.52288859 Ry

     iteration #  2     ecut=    50.00 Ry     beta= 0.70
     Davidson diagonalization with overlap
     ethr =  5.26E-03,  avg # of iterations =  3.0

     total cpu time spent up to now is       41.8 secs

     total energy              =    -390.73669920 Ry
     Harris-Foulkes estimate   =    -391.75337776 Ry
     estimated scf accuracy    <       2.03465577 Ry

     iteration #  3     ecut=    50.00 Ry     beta= 0.70
     Davidson diagonalization with overlap
     ethr =  4.24E-03,  avg # of iterations =  1.7

     total cpu time spent up to now is       55.0 secs

     total energy              =    -390.62085382 Ry
     Harris-Foulkes estimate   =    -390.86225468 Ry
     estimated scf accuracy    <       0.39069371 Ry

     iteration #  4     ecut=    50.00 Ry     beta= 0.70
     Davidson diagonalization with overlap
     ethr =  8.14E-04,  avg # of iterations =  3.7

     total cpu time spent up to now is       65.2 secs

     total energy              =    -391.12532385 Ry
     Harris-Foulkes estimate   =    -391.35928851 Ry
     estimated scf accuracy    <       0.71123909 Ry

     iteration #  5     ecut=    50.00 Ry     beta= 0.70
     Davidson diagonalization with overlap
     ethr =  8.14E-04,  avg # of iterations =  1.0

     total cpu time spent up to now is       72.5 secs

     total energy              =    -391.06427883 Ry
     Harris-Foulkes estimate   =    -391.14072299 Ry
     estimated scf accuracy    <       0.31050003 Ry

     iteration #  6     ecut=    50.00 Ry     beta= 0.70
     Davidson diagonalization with overlap
     ethr =  6.47E-04,  avg # of iterations =  3.0

     total cpu time spent up to now is       80.1 secs

     total energy              =    -391.13982809 Ry
     Harris-Foulkes estimate   =    -391.13930470 Ry
     estimated scf accuracy    <       0.01311320 Ry

     iteration #  7     ecut=    50.00 Ry     beta= 0.70
     Davidson diagonalization with overlap
     ethr =  2.73E-05,  avg # of iterations =  3.0

     total cpu time spent up to now is       87.4 secs

     total energy              =    -391.14146841 Ry
     Harris-Foulkes estimate   =    -391.14201880 Ry
     estimated scf accuracy    <       0.01386043 Ry

     iteration #  8     ecut=    50.00 Ry     beta= 0.70
     Davidson diagonalization with overlap
     ethr =  2.73E-05,  avg # of iterations =  1.0

     total cpu time spent up to now is       94.3 secs

     total energy              =    -391.14100778 Ry
     Harris-Foulkes estimate   =    -391.14169019 Ry
     estimated scf accuracy    <       0.01130845 Ry

     iteration #  9     ecut=    50.00 Ry     beta= 0.70
     Davidson diagonalization with overlap
     ethr =  2.36E-05,  avg # of iterations =  1.0

     total cpu time spent up to now is      101.2 secs

     total energy              =    -391.13744459 Ry
     Harris-Foulkes estimate   =    -391.14108898 Ry
     estimated scf accuracy    <       0.00966929 Ry

     iteration # 10     ecut=    50.00 Ry     beta= 0.70
     Davidson diagonalization with overlap
     ethr =  2.01E-05,  avg # of iterations =  1.0

     total cpu time spent up to now is      108.1 secs

     total energy              =    -391.13766623 Ry
     Harris-Foulkes estimate   =    -391.13793040 Ry
     estimated scf accuracy    <       0.00290765 Ry

     iteration # 11     ecut=    50.00 Ry     beta= 0.70
     Davidson diagonalization with overlap
     ethr =  6.06E-06,  avg # of iterations =  3.7

     total cpu time spent up to now is      115.6 secs

     total energy              =    -391.13889365 Ry
     Harris-Foulkes estimate   =    -391.13889446 Ry
     estimated scf accuracy    <       0.00011555 Ry

     iteration # 12     ecut=    50.00 Ry     beta= 0.70
     Davidson diagonalization with overlap
     ethr =  2.41E-07,  avg # of iterations =  2.0

     total cpu time spent up to now is      122.4 secs

     total energy              =    -391.13924101 Ry
     Harris-Foulkes estimate   =    -391.13890010 Ry
     estimated scf accuracy    <       0.00010441 Ry

     iteration # 13     ecut=    50.00 Ry     beta= 0.70
     Davidson diagonalization with overlap
     ethr =  2.18E-07,  avg # of iterations =  4.0

     total cpu time spent up to now is      130.3 secs

     total energy              =    -391.13886318 Ry
     Harris-Foulkes estimate   =    -391.13945494 Ry
     estimated scf accuracy    <       0.00185514 Ry

     iteration # 14     ecut=    50.00 Ry     beta= 0.70
     Davidson diagonalization with overlap
     ethr =  2.18E-07,  avg # of iterations =  3.0

     total cpu time spent up to now is      138.1 secs

     total energy              =    -391.13872055 Ry
     Harris-Foulkes estimate   =    -391.13898030 Ry
     estimated scf accuracy    <       0.00034338 Ry

     iteration # 15     ecut=    50.00 Ry     beta= 0.70
     Davidson diagonalization with overlap
     ethr =  2.18E-07,  avg # of iterations =  4.0

     total cpu time spent up to now is      147.6 secs

     total energy              =    -391.13857201 Ry
     Harris-Foulkes estimate   =    -391.13926703 Ry
     estimated scf accuracy    <       0.00131143 Ry

     iteration # 16     ecut=    50.00 Ry     beta= 0.70
     Davidson diagonalization with overlap
     ethr =  2.18E-07,  avg # of iterations =  5.0

     total cpu time spent up to now is      159.5 secs

     total energy              =    -391.13991937 Ry
     Harris-Foulkes estimate   =    -391.14235546 Ry
     estimated scf accuracy    <       0.01118321 Ry

     iteration # 17     ecut=    50.00 Ry     beta= 0.70
     Davidson diagonalization with overlap
     ethr =  2.18E-07,  avg # of iterations =  4.0

     total cpu time spent up to now is      171.2 secs

     total energy              =    -391.13992050 Ry
     Harris-Foulkes estimate   =    -391.14021791 Ry
     estimated scf accuracy    <       0.00435762 Ry

     iteration # 18     ecut=    50.00 Ry     beta= 0.70
     Davidson diagonalization with overlap
     ethr =  2.18E-07,  avg # of iterations =  1.0

     total cpu time spent up to now is      179.1 secs

     total energy              =    -391.13873535 Ry
     Harris-Foulkes estimate   =    -391.13992375 Ry
     estimated scf accuracy    <       0.00381949 Ry

     iteration # 19     ecut=    50.00 Ry     beta= 0.70
     Davidson diagonalization with overlap
     ethr =  2.18E-07,  avg # of iterations =  4.0

     total cpu time spent up to now is      187.2 secs

     total energy              =    -391.13872358 Ry
     Harris-Foulkes estimate   =    -391.13904164 Ry
     estimated scf accuracy    <       0.00056503 Ry

     iteration # 20     ecut=    50.00 Ry     beta= 0.70
     Davidson diagonalization with overlap
     ethr =  2.18E-07,  avg # of iterations =  3.0

     total cpu time spent up to now is      194.8 secs

     total energy              =    -391.13886489 Ry
     Harris-Foulkes estimate   =    -391.13887346 Ry
     estimated scf accuracy    <       0.00001944 Ry

     iteration # 21     ecut=    50.00 Ry     beta= 0.70
     Davidson diagonalization with overlap
     ethr =  4.05E-08,  avg # of iterations =  1.0

     total cpu time spent up to now is      201.4 secs

     total energy              =    -391.13886356 Ry
     Harris-Foulkes estimate   =    -391.13886570 Ry
     estimated scf accuracy    <       0.00000508 Ry

     iteration # 22     ecut=    50.00 Ry     beta= 0.70
     Davidson diagonalization with overlap
     ethr =  1.06E-08,  avg # of iterations =  3.0

     total cpu time spent up to now is      208.7 secs

     total energy              =    -391.13886807 Ry
     Harris-Foulkes estimate   =    -391.13886799 Ry
     estimated scf accuracy    <       0.00000135 Ry

     iteration # 23     ecut=    50.00 Ry     beta= 0.70
     Davidson diagonalization with overlap
     ethr =  2.82E-09,  avg # of iterations =  1.0

     total cpu time spent up to now is      215.4 secs

     total energy              =    -391.13886774 Ry
     Harris-Foulkes estimate   =    -391.13886808 Ry
     estimated scf accuracy    <       0.00000153 Ry

     iteration # 24     ecut=    50.00 Ry     beta= 0.70
     Davidson diagonalization with overlap
     ethr =  2.82E-09,  avg # of iterations =  1.0

     total cpu time spent up to now is      221.9 secs

     End of self-consistent calculation

          k = 0.4330 0.2500 0.2272 (  4548 PWs)   bands (ev):

   -16.4030 -15.9414 -15.4031 -14.8074 -14.7896 -14.7442  -5.8092  -4.6968
    -3.8328  -2.8538  -2.5574  -2.2641  -0.6704  -0.3897  -0.1617   0.3015
     0.5483   0.7526   1.1195   1.3065   1.5408   1.8355   2.0894   2.3693

          k = 0.1443-0.2500 0.2272 (  4550 PWs)   bands (ev):

   -16.6410 -15.9325 -15.1361 -14.7848 -14.7668 -14.7260  -6.1831  -4.7475
    -3.4298  -2.9139  -2.6212  -2.4176  -0.6725  -0.2095  -0.0618   0.2461
     0.5391   0.8969   1.0094   1.2416   1.5933   1.7900   2.2138   2.4125

          k =-0.1443 0.2500 0.2272 (  4550 PWs)   bands (ev):

   -16.6433 -15.9221 -15.1604 -14.7824 -14.7415 -14.7371  -6.1854  -4.7490
    -3.4304  -2.9331  -2.6416  -2.3535  -0.6299  -0.1599  -0.1207   0.1150
     0.4847   1.0072   1.0774   1.2224   1.6548   1.7060   2.1281   2.4941

     highest occupied level (ev):     2.4941

!    total energy              =    -391.13886697 Ry
     Harris-Foulkes estimate   =    -391.13886775 Ry
     estimated scf accuracy    <       0.00000095 Ry

     total all-electron energy =     -2644.257803 Ry

     The total energy is the sum of the following terms:

     one-electron contribution =    -101.56849268 Ry
     hartree contribution      =      78.23290097 Ry
     xc contribution           =     -64.65244652 Ry
     ewald contribution        =    -138.99781517 Ry
     one-center paw contrib.   =    -164.15301357 Ry

     convergence has been achieved in  24 iterations

     Writing output data file qa.save/

     init_run     :     10.58s CPU     15.94s WALL (       1 calls)
     electrons    :    192.08s CPU    204.21s WALL (       1 calls)

     Called by init_run:
     wfcinit      :      1.27s CPU      1.60s WALL (       1 calls)
     potinit      :      4.93s CPU      7.61s WALL (       1 calls)
     hinit0       :      3.21s CPU      3.96s WALL (       1 calls)

     Called by electrons:
     c_bands      :     57.02s CPU     53.92s WALL (      24 calls)
     sum_band     :     34.56s CPU     38.40s WALL (      24 calls)
     v_of_rho     :      5.75s CPU      6.49s WALL (      25 calls)
     newd         :     19.61s CPU     26.10s WALL (      25 calls)
     PAW_pot      :     78.87s CPU     86.11s WALL (      25 calls)
     mix_rho      :      1.05s CPU      1.43s WALL (      24 calls)

     Called by c_bands:
     init_us_2    :      1.37s CPU      1.47s WALL (     147 calls)
     cegterg      :     47.34s CPU     43.57s WALL (      72 calls)

     Called by sum_band:
     sum_band:bec :      0.01s CPU      0.01s WALL (      72 calls)
     addusdens    :     25.83s CPU     29.56s WALL (      24 calls)

     Called by *egterg:
     h_psi        :     38.25s CPU     37.88s WALL (     259 calls)
     s_psi        :      3.01s CPU      1.73s WALL (     259 calls)
     g_psi        :      0.50s CPU      0.52s WALL (     184 calls)
     cdiaghg      :      0.48s CPU      0.55s WALL (     256 calls)

     Called by h_psi:
     h_psi:pot    :     38.10s CPU     37.67s WALL (     259 calls)
     h_psi:calbec :      2.99s CPU      1.68s WALL (     259 calls)
     vloc_psi     :     32.03s CPU     34.27s WALL (     259 calls)
     add_vuspsi   :      3.07s CPU      1.71s WALL (     259 calls)

     General routines
     calbec       :      3.97s CPU      2.22s WALL (     331 calls)
     fft          :      2.77s CPU      3.05s WALL (     323 calls)
     ffts         :      0.19s CPU      0.24s WALL (      49 calls)
     fftw         :     28.67s CPU     30.68s WALL (   12622 calls)
     interpolate  :      0.36s CPU      0.49s WALL (      25 calls)

     Parallel routines

     PWSCF        :   3m24.20s CPU   3m41.93s WALL


   This run was terminated on:  11:48: 3   6Jul2020            

=------------------------------------------------------------------------------=
   JOB DONE.
=------------------------------------------------------------------------------=
