
     Program PWSCF v.6.4.1 starts on  7Jul2020 at  3:34:48 

     This program is part of the open-source Quantum ESPRESSO suite
     for quantum simulation of materials; please cite
         "P. Giannozzi et al., J. Phys.:Condens. Matter 21 395502 (2009);
         "P. Giannozzi et al., J. Phys.:Condens. Matter 29 465901 (2017);
          URL http://www.quantum-espresso.org", 
     in publications or presentations arising from this work. More details at
     http://www.quantum-espresso.org/quote

     Parallel version (MPI), running on     1 processors

     MPI processes distributed on     1 nodes
     Waiting for input...
     Reading input from standard input

     Current dimensions of program PWSCF are:
     Max number of different atomic species (ntypx) = 10
     Max number of k-points (npk) =  40000
     Max angular momentum in pseudopotentials (lmaxx) =  3
               file Si.pbe-n-kjpaw_psl.1.0.0.UPF: wavefunction(s)  3S 3P renormalized
               file O.pbe-n-kjpaw_psl.1.0.0.UPF: wavefunction(s)  2S 2P renormalized

     Subspace diagonalization in iterative solution of the eigenvalue problem:
     a serial algorithm will be used

     Message from routine setup:
     DEPRECATED: symmetry with ibrav=0, use correct ibrav instead

     G-vector sticks info
     --------------------
     sticks:   dense  smooth     PW     G-vecs:    dense   smooth      PW
     Sum        2149     721    199                88057    16883    2581



     bravais-lattice index     =            0
     lattice parameter (alat)  =       9.2861  a.u.
     unit-cell volume          =     762.9105 (a.u.)^3
     number of atoms/cell      =            9
     number of atomic types    =            2
     number of electrons       =        48.00
     number of Kohn-Sham states=           24
     kinetic-energy cutoff     =      30.0000  Ry
     charge density cutoff     =     360.0000  Ry
     convergence threshold     =      1.0E-06
     mixing beta               =       0.7000
     number of iterations used =            8  plain     mixing
     Exchange-correlation      = SLA PW PBX PBC ( 1  4  3  4 0 0)

     celldm(1)=   9.286114  celldm(2)=   0.000000  celldm(3)=   0.000000
     celldm(4)=   0.000000  celldm(5)=   0.000000  celldm(6)=   0.000000

     crystal axes: (cart. coord. in units of alat)
               a(1) = (   0.866025  -0.500000   0.000000 )  
               a(2) = (   0.000000   1.000000   0.000000 )  
               a(3) = (   0.000000   0.000000   1.100122 )  

     reciprocal axes: (cart. coord. in units 2 pi/alat)
               b(1) = (  1.154701  0.000000  0.000000 )  
               b(2) = (  0.577350  1.000000 -0.000000 )  
               b(3) = ( -0.000000  0.000000  0.908990 )  


     PseudoPot. # 1 for Si read from file:
     ./Si.pbe-n-kjpaw_psl.1.0.0.UPF
     MD5 check sum: c39c59da582df4a0d9f10159256ea34e
     Pseudo is Projector augmented-wave + core cor, Zval =  4.0
     Generated using "atomic" code by A. Dal Corso v.6.3
     Shape of augmentation charge: PSQ
     Using radial grid of 1141 points,  6 beta functions with: 
                l(1) =   0
                l(2) =   0
                l(3) =   1
                l(4) =   1
                l(5) =   2
                l(6) =   2
     Q(r) pseudized with 0 coefficients 


     PseudoPot. # 2 for O  read from file:
     ./O.pbe-n-kjpaw_psl.1.0.0.UPF
     MD5 check sum: e99d9cef9b487d1ca56f5b95ecd0fd7a
     Pseudo is Projector augmented-wave + core cor, Zval =  6.0
     Generated using "atomic" code by A. Dal Corso v.6.3
     Shape of augmentation charge: PSQ
     Using radial grid of 1095 points,  4 beta functions with: 
                l(1) =   0
                l(2) =   0
                l(3) =   1
                l(4) =   1
     Q(r) pseudized with 0 coefficients 


     atomic species   valence    mass     pseudopotential
        Si             4.00    28.08500     Si( 1.00)
        O              6.00    15.99900     O ( 1.00)

      6 Sym. Ops. (no inversion) found ( 4 have fractional translation)



   Cartesian axes

     site n.     atom                  positions (alat units)
         1           Si  tau(   1) = (   0.4069453  -0.2349500   0.3667074  )
         2           Si  tau(   2) = (   0.4590801   0.2650500   0.0000000  )
         3           Si  tau(   3) = (   0.0000000   0.4699000   0.7334147  )
         4           O   tau(   4) = (   0.3576685   0.0603000   0.2354261  )
         5           O   tau(   5) = (   0.5083569   0.5603000   0.1312812  )
         6           O   tau(   6) = (   0.1266129   0.6601000   0.4979886  )
         7           O   tau(   7) = (   0.6349698  -0.2204000   0.6021335  )
         8           O   tau(   8) = (   0.7394125   0.1601000   0.9688409  )
         9           O   tau(   9) = (   0.2310556   0.2796000   0.8646960  )

     number of k points=     3
                       cart. coord. in units 2pi/alat
        k(    1) = (   0.4330127   0.2500000   0.2272475), wk =   1.0000000
        k(    2) = (   0.1443376  -0.2500000   0.2272475), wk =   0.5000000
        k(    3) = (  -0.1443376   0.2500000   0.2272475), wk =   0.5000000

     Dense  grid:    88057 G-vectors     FFT dimensions: (  60,  60,  72)

     Smooth grid:    16883 G-vectors     FFT dimensions: (  36,  36,  36)

     Estimated max dynamical RAM per process >     325.43 MB

     Check: negative core charge=   -0.000003

     Initial potential from superposition of free atoms

     starting charge   47.99831, renormalised to   48.00000
     Starting wfcs are   36 randomized atomic wfcs
     Checking if some PAW data can be deallocated... 

     total cpu time spent up to now is        2.7 secs

     Self-consistent Calculation

     iteration #  1     ecut=    30.00 Ry     beta= 0.70
     Davidson diagonalization with overlap
     ethr =  1.00E-02,  avg # of iterations =  3.0

     total cpu time spent up to now is        4.4 secs

     total energy              =    -389.64137307 Ry
     Harris-Foulkes estimate   =    -390.95700022 Ry
     estimated scf accuracy    <       1.91137576 Ry

     iteration #  2     ecut=    30.00 Ry     beta= 0.70
     Davidson diagonalization with overlap
     ethr =  3.98E-03,  avg # of iterations =  3.0

     total cpu time spent up to now is        6.2 secs

     total energy              =    -390.14280182 Ry
     Harris-Foulkes estimate   =    -390.81551437 Ry
     estimated scf accuracy    <       1.30758700 Ry

     iteration #  3     ecut=    30.00 Ry     beta= 0.70
     Davidson diagonalization with overlap
     ethr =  2.72E-03,  avg # of iterations =  3.0

     total cpu time spent up to now is        8.0 secs

     total energy              =    -390.41198294 Ry
     Harris-Foulkes estimate   =    -390.41162598 Ry
     estimated scf accuracy    <       0.00775712 Ry

     iteration #  4     ecut=    30.00 Ry     beta= 0.70
     Davidson diagonalization with overlap
     ethr =  1.62E-05,  avg # of iterations =  3.7

     total cpu time spent up to now is        9.8 secs

     total energy              =    -390.41569919 Ry
     Harris-Foulkes estimate   =    -390.41596233 Ry
     estimated scf accuracy    <       0.00073389 Ry

     iteration #  5     ecut=    30.00 Ry     beta= 0.70
     Davidson diagonalization with overlap
     ethr =  1.53E-06,  avg # of iterations =  3.0

     total cpu time spent up to now is       11.4 secs

     total energy              =    -390.41571029 Ry
     Harris-Foulkes estimate   =    -390.41578869 Ry
     estimated scf accuracy    <       0.00016953 Ry

     iteration #  6     ecut=    30.00 Ry     beta= 0.70
     Davidson diagonalization with overlap
     ethr =  3.53E-07,  avg # of iterations =  2.7

     total cpu time spent up to now is       13.0 secs

     total energy              =    -390.41574872 Ry
     Harris-Foulkes estimate   =    -390.41575015 Ry
     estimated scf accuracy    <       0.00000426 Ry

     iteration #  7     ecut=    30.00 Ry     beta= 0.70
     Davidson diagonalization with overlap
     ethr =  8.87E-09,  avg # of iterations =  3.0

     total cpu time spent up to now is       14.8 secs

     End of self-consistent calculation

          k = 0.4330 0.2500 0.2272 (  2129 PWs)   bands (ev):

   -16.6383 -16.1845 -15.6581 -15.0786 -15.0614 -15.0182  -5.8216  -4.7098
    -3.8328  -2.8353  -2.5429  -2.2334  -0.6496  -0.3856  -0.1471   0.3316
     0.5892   0.7862   1.1636   1.3386   1.5926   1.8878   2.1596   2.4357

          k = 0.1443-0.2500 0.2272 (  2119 PWs)   bands (ev):

   -16.8719 -16.1760 -15.3975 -15.0568 -15.0392 -15.0007  -6.1894  -4.7484
    -3.4218  -2.8880  -2.6006  -2.3776  -0.6289  -0.1890  -0.0277   0.2579
     0.5708   0.9559   1.0560   1.3096   1.6516   1.8582   2.2790   2.4815

          k =-0.1443 0.2500 0.2272 (  2119 PWs)   bands (ev):

   -16.8739 -16.1654 -15.4216 -15.0547 -15.0145 -15.0112  -6.1929  -4.7452
    -3.4212  -2.9076  -2.6204  -2.3202  -0.5920  -0.1318  -0.0882   0.1599
     0.4981   1.0415   1.1405   1.2753   1.7035   1.7740   2.2027   2.5686

     highest occupied level (ev):     2.5686

!    total energy              =    -390.41575015 Ry
     Harris-Foulkes estimate   =    -390.41575041 Ry
     estimated scf accuracy    <       0.00000090 Ry

     total all-electron energy =     -2643.534686 Ry

     The total energy is the sum of the following terms:

     one-electron contribution =    -100.22208795 Ry
     hartree contribution      =      77.34834321 Ry
     xc contribution           =     -64.46806874 Ry
     ewald contribution        =    -138.99781517 Ry
     one-center paw contrib.   =    -164.07612150 Ry

     convergence has been achieved in   7 iterations

     Writing output data file qa.save/

     init_run     :      1.82s CPU      1.85s WALL (       1 calls)
     electrons    :     13.97s CPU     12.16s WALL (       1 calls)

     Called by init_run:
     wfcinit      :      0.23s CPU      0.17s WALL (       1 calls)
     potinit      :      0.67s CPU      0.68s WALL (       1 calls)
     hinit0       :      0.67s CPU      0.68s WALL (       1 calls)

     Called by electrons:
     c_bands      :      3.65s CPU      2.52s WALL (       7 calls)
     sum_band     :      4.40s CPU      3.06s WALL (       7 calls)
     v_of_rho     :      0.98s CPU      1.03s WALL (       8 calls)
     newd         :      1.67s CPU      2.26s WALL (       8 calls)
     PAW_pot      :      3.88s CPU      3.93s WALL (       8 calls)
     mix_rho      :      0.11s CPU      0.15s WALL (       7 calls)

     Called by c_bands:
     init_us_2    :      0.04s CPU      0.04s WALL (      45 calls)
     cegterg      :      3.51s CPU      2.38s WALL (      21 calls)

     Called by sum_band:
     sum_band:bec :      0.00s CPU      0.00s WALL (      21 calls)
     addusdens    :      3.81s CPU      2.53s WALL (       7 calls)

     Called by *egterg:
     h_psi        :      2.62s CPU      2.11s WALL (      88 calls)
     s_psi        :      0.38s CPU      0.06s WALL (      88 calls)
     g_psi        :      0.01s CPU      0.01s WALL (      64 calls)
     cdiaghg      :      0.10s CPU      0.10s WALL (      85 calls)

     Called by h_psi:
     h_psi:pot    :      2.61s CPU      2.10s WALL (      88 calls)
     h_psi:calbec :      0.28s CPU      0.08s WALL (      88 calls)
     vloc_psi     :      1.94s CPU      1.95s WALL (      88 calls)
     add_vuspsi   :      0.39s CPU      0.07s WALL (      88 calls)

     General routines
     calbec       :      0.37s CPU      0.10s WALL (     109 calls)
     fft          :      0.58s CPU      0.58s WALL (     102 calls)
     ffts         :      0.02s CPU      0.02s WALL (      15 calls)
     fftw         :      1.76s CPU      1.76s WALL (    3954 calls)
     interpolate  :      0.05s CPU      0.06s WALL (       8 calls)

     Parallel routines

     PWSCF        :     16.59s CPU     14.84s WALL


   This run was terminated on:   3:35: 3   7Jul2020            

=------------------------------------------------------------------------------=
   JOB DONE.
=------------------------------------------------------------------------------=
