
     Program PWSCF v.6.4.1 starts on  7Jul2020 at  3:49:14 

     This program is part of the open-source Quantum ESPRESSO suite
     for quantum simulation of materials; please cite
         "P. Giannozzi et al., J. Phys.:Condens. Matter 21 395502 (2009);
         "P. Giannozzi et al., J. Phys.:Condens. Matter 29 465901 (2017);
          URL http://www.quantum-espresso.org", 
     in publications or presentations arising from this work. More details at
     http://www.quantum-espresso.org/quote

     Parallel version (MPI), running on     1 processors

     MPI processes distributed on     1 nodes
     Waiting for input...
     Reading input from standard input

     Current dimensions of program PWSCF are:
     Max number of different atomic species (ntypx) = 10
     Max number of k-points (npk) =  40000
     Max angular momentum in pseudopotentials (lmaxx) =  3
               file Si.pbe-n-kjpaw_psl.1.0.0.UPF: wavefunction(s)  3S 3P renormalized
               file O.pbe-n-kjpaw_psl.1.0.0.UPF: wavefunction(s)  2S 2P renormalized

     Subspace diagonalization in iterative solution of the eigenvalue problem:
     a serial algorithm will be used

     Message from routine setup:
     DEPRECATED: symmetry with ibrav=0, use correct ibrav instead

     G-vector sticks info
     --------------------
     sticks:   dense  smooth     PW     G-vecs:    dense   smooth      PW
     Sum        3571    1189    367               189397    36345    6163



     bravais-lattice index     =            0
     lattice parameter (alat)  =       9.2861  a.u.
     unit-cell volume          =     762.9105 (a.u.)^3
     number of atoms/cell      =            9
     number of atomic types    =            2
     number of electrons       =        48.00
     number of Kohn-Sham states=           24
     kinetic-energy cutoff     =      50.0000  Ry
     charge density cutoff     =     600.0000  Ry
     convergence threshold     =      1.0E-06
     mixing beta               =       0.7000
     number of iterations used =            8  plain     mixing
     Exchange-correlation      = SLA PW PBX PBC ( 1  4  3  4 0 0)

     celldm(1)=   9.286114  celldm(2)=   0.000000  celldm(3)=   0.000000
     celldm(4)=   0.000000  celldm(5)=   0.000000  celldm(6)=   0.000000

     crystal axes: (cart. coord. in units of alat)
               a(1) = (   0.866025  -0.500000   0.000000 )  
               a(2) = (   0.000000   1.000000   0.000000 )  
               a(3) = (   0.000000   0.000000   1.100122 )  

     reciprocal axes: (cart. coord. in units 2 pi/alat)
               b(1) = (  1.154701  0.000000  0.000000 )  
               b(2) = (  0.577350  1.000000 -0.000000 )  
               b(3) = ( -0.000000  0.000000  0.908990 )  


     PseudoPot. # 1 for Si read from file:
     ./Si.pbe-n-kjpaw_psl.1.0.0.UPF
     MD5 check sum: c39c59da582df4a0d9f10159256ea34e
     Pseudo is Projector augmented-wave + core cor, Zval =  4.0
     Generated using "atomic" code by A. Dal Corso v.6.3
     Shape of augmentation charge: PSQ
     Using radial grid of 1141 points,  6 beta functions with: 
                l(1) =   0
                l(2) =   0
                l(3) =   1
                l(4) =   1
                l(5) =   2
                l(6) =   2
     Q(r) pseudized with 0 coefficients 


     PseudoPot. # 2 for O  read from file:
     ./O.pbe-n-kjpaw_psl.1.0.0.UPF
     MD5 check sum: e99d9cef9b487d1ca56f5b95ecd0fd7a
     Pseudo is Projector augmented-wave + core cor, Zval =  6.0
     Generated using "atomic" code by A. Dal Corso v.6.3
     Shape of augmentation charge: PSQ
     Using radial grid of 1095 points,  4 beta functions with: 
                l(1) =   0
                l(2) =   0
                l(3) =   1
                l(4) =   1
     Q(r) pseudized with 0 coefficients 


     atomic species   valence    mass     pseudopotential
        Si             4.00    28.08500     Si( 1.00)
        O              6.00    15.99900     O ( 1.00)

      6 Sym. Ops. (no inversion) found ( 4 have fractional translation)



   Cartesian axes

     site n.     atom                  positions (alat units)
         1           Si  tau(   1) = (   0.4069453  -0.2349500   0.3667074  )
         2           Si  tau(   2) = (   0.4590801   0.2650500   0.0000000  )
         3           Si  tau(   3) = (   0.0000000   0.4699000   0.7334147  )
         4           O   tau(   4) = (   0.3576685   0.0603000   0.2354261  )
         5           O   tau(   5) = (   0.5083569   0.5603000   0.1312812  )
         6           O   tau(   6) = (   0.1266129   0.6601000   0.4979886  )
         7           O   tau(   7) = (   0.6349698  -0.2204000   0.6021335  )
         8           O   tau(   8) = (   0.7394125   0.1601000   0.9688409  )
         9           O   tau(   9) = (   0.2310556   0.2796000   0.8646960  )

     number of k points=     1
                       cart. coord. in units 2pi/alat
        k(    1) = (  -0.8660254  -0.5000000  -0.4544950), wk =   2.0000000

     Dense  grid:   189397 G-vectors     FFT dimensions: (  75,  75,  81)

     Smooth grid:    36345 G-vectors     FFT dimensions: (  45,  45,  45)

     Estimated max dynamical RAM per process >     684.09 MB

     Initial potential from superposition of free atoms

     starting charge   47.99831, renormalised to   48.00000
     Starting wfcs are   36 randomized atomic wfcs
     Checking if some PAW data can be deallocated... 

     total cpu time spent up to now is        3.5 secs

     Self-consistent Calculation

     iteration #  1     ecut=    50.00 Ry     beta= 0.70
     Davidson diagonalization with overlap
     ethr =  1.00E-02,  avg # of iterations =  3.0

     total cpu time spent up to now is        6.2 secs

     total energy              =    -389.82900418 Ry
     Harris-Foulkes estimate   =    -391.63399572 Ry
     estimated scf accuracy    <       2.53839114 Ry

     iteration #  2     ecut=    50.00 Ry     beta= 0.70
     Davidson diagonalization with overlap
     ethr =  5.29E-03,  avg # of iterations =  3.0

     total cpu time spent up to now is        9.0 secs

     total energy              =    -390.73902818 Ry
     Harris-Foulkes estimate   =    -391.76970661 Ry
     estimated scf accuracy    <       2.06766904 Ry

     iteration #  3     ecut=    50.00 Ry     beta= 0.70
     Davidson diagonalization with overlap
     ethr =  4.31E-03,  avg # of iterations =  1.0

     total cpu time spent up to now is       11.6 secs

     total energy              =    -390.60272670 Ry
     Harris-Foulkes estimate   =    -390.85887056 Ry
     estimated scf accuracy    <       0.41962967 Ry

     iteration #  4     ecut=    50.00 Ry     beta= 0.70
     Davidson diagonalization with overlap
     ethr =  8.74E-04,  avg # of iterations =  4.0

     total cpu time spent up to now is       14.8 secs

     total energy              =    -391.13691919 Ry
     Harris-Foulkes estimate   =    -391.37054702 Ry
     estimated scf accuracy    <       0.72553880 Ry

     iteration #  5     ecut=    50.00 Ry     beta= 0.70
     Davidson diagonalization with overlap
     ethr =  8.74E-04,  avg # of iterations =  1.0

     total cpu time spent up to now is       17.9 secs

     total energy              =    -391.07074045 Ry
     Harris-Foulkes estimate   =    -391.15175883 Ry
     estimated scf accuracy    <       0.32544952 Ry

     iteration #  6     ecut=    50.00 Ry     beta= 0.70
     Davidson diagonalization with overlap
     ethr =  6.78E-04,  avg # of iterations =  3.0

     total cpu time spent up to now is       20.8 secs

     total energy              =    -391.14658960 Ry
     Harris-Foulkes estimate   =    -391.14579037 Ry
     estimated scf accuracy    <       0.01589927 Ry

     iteration #  7     ecut=    50.00 Ry     beta= 0.70
     Davidson diagonalization with overlap
     ethr =  3.31E-05,  avg # of iterations =  3.0

     total cpu time spent up to now is       23.4 secs

     total energy              =    -391.14839379 Ry
     Harris-Foulkes estimate   =    -391.14917843 Ry
     estimated scf accuracy    <       0.01663557 Ry

     iteration #  8     ecut=    50.00 Ry     beta= 0.70
     Davidson diagonalization with overlap
     ethr =  3.31E-05,  avg # of iterations =  1.0

     total cpu time spent up to now is       26.0 secs

     total energy              =    -391.14742129 Ry
     Harris-Foulkes estimate   =    -391.14857738 Ry
     estimated scf accuracy    <       0.01355270 Ry

     iteration #  9     ecut=    50.00 Ry     beta= 0.70
     Davidson diagonalization with overlap
     ethr =  2.82E-05,  avg # of iterations =  1.0

     total cpu time spent up to now is       28.6 secs

     total energy              =    -391.14312069 Ry
     Harris-Foulkes estimate   =    -391.14750924 Ry
     estimated scf accuracy    <       0.01124318 Ry

     iteration # 10     ecut=    50.00 Ry     beta= 0.70
     Davidson diagonalization with overlap
     ethr =  2.34E-05,  avg # of iterations =  1.0

     total cpu time spent up to now is       31.1 secs

     total energy              =    -391.14306312 Ry
     Harris-Foulkes estimate   =    -391.14367658 Ry
     estimated scf accuracy    <       0.00340434 Ry

     iteration # 11     ecut=    50.00 Ry     beta= 0.70
     Davidson diagonalization with overlap
     ethr =  7.09E-06,  avg # of iterations =  3.0

     total cpu time spent up to now is       33.8 secs

     total energy              =    -391.14509257 Ry
     Harris-Foulkes estimate   =    -391.14508043 Ry
     estimated scf accuracy    <       0.00002551 Ry

     iteration # 12     ecut=    50.00 Ry     beta= 0.70
     Davidson diagonalization with overlap
     ethr =  5.31E-08,  avg # of iterations =  3.0

     total cpu time spent up to now is       36.5 secs

     total energy              =    -391.14510529 Ry
     Harris-Foulkes estimate   =    -391.14510309 Ry
     estimated scf accuracy    <       0.00006761 Ry

     iteration # 13     ecut=    50.00 Ry     beta= 0.70
     Davidson diagonalization with overlap
     ethr =  5.31E-08,  avg # of iterations =  1.0

     total cpu time spent up to now is       39.2 secs

     total energy              =    -391.14509869 Ry
     Harris-Foulkes estimate   =    -391.14510598 Ry
     estimated scf accuracy    <       0.00007359 Ry

     iteration # 14     ecut=    50.00 Ry     beta= 0.70
     Davidson diagonalization with overlap
     ethr =  5.31E-08,  avg # of iterations =  1.0

     total cpu time spent up to now is       41.8 secs

     total energy              =    -391.14508000 Ry
     Harris-Foulkes estimate   =    -391.14509897 Ry
     estimated scf accuracy    <       0.00006143 Ry

     iteration # 15     ecut=    50.00 Ry     beta= 0.70
     Davidson diagonalization with overlap
     ethr =  5.31E-08,  avg # of iterations =  2.0

     total cpu time spent up to now is       44.5 secs

     total energy              =    -391.14512934 Ry
     Harris-Foulkes estimate   =    -391.14508156 Ry
     estimated scf accuracy    <       0.00002628 Ry

     iteration # 16     ecut=    50.00 Ry     beta= 0.70
     Davidson diagonalization with overlap
     ethr =  5.31E-08,  avg # of iterations =  4.0

     total cpu time spent up to now is       47.4 secs

     total energy              =    -391.14525203 Ry
     Harris-Foulkes estimate   =    -391.14540971 Ry
     estimated scf accuracy    <       0.00106396 Ry

     iteration # 17     ecut=    50.00 Ry     beta= 0.70
     Davidson diagonalization with overlap
     ethr =  5.31E-08,  avg # of iterations =  4.0

     total cpu time spent up to now is       50.2 secs

     total energy              =    -391.14519179 Ry
     Harris-Foulkes estimate   =    -391.14526464 Ry
     estimated scf accuracy    <       0.00059798 Ry

     iteration # 18     ecut=    50.00 Ry     beta= 0.70
     Davidson diagonalization with overlap
     ethr =  5.31E-08,  avg # of iterations =  1.0

     total cpu time spent up to now is       52.7 secs

     total energy              =    -391.14511829 Ry
     Harris-Foulkes estimate   =    -391.14519314 Ry
     estimated scf accuracy    <       0.00046652 Ry

     iteration # 19     ecut=    50.00 Ry     beta= 0.70
     Davidson diagonalization with overlap
     ethr =  5.31E-08,  avg # of iterations =  3.0

     total cpu time spent up to now is       55.4 secs

     total energy              =    -391.14504659 Ry
     Harris-Foulkes estimate   =    -391.14513636 Ry
     estimated scf accuracy    <       0.00018175 Ry

     iteration # 20     ecut=    50.00 Ry     beta= 0.70
     Davidson diagonalization with overlap
     ethr =  5.31E-08,  avg # of iterations =  4.0

     total cpu time spent up to now is       58.0 secs

     End of self-consistent calculation

          k =-0.8660-0.5000-0.4545 (  4544 PWs)   bands (ev):

   -16.3550 -15.9144 -15.4600 -14.8220 -14.7523 -14.7333  -5.7031  -4.7369
    -3.8672  -2.7770  -2.5054  -2.3894  -0.6814  -0.6627   0.0891   0.4165
     0.4338   0.9782   1.2534   1.3835   1.6448   1.6976   1.9293   2.3399

     highest occupied level (ev):     2.3399

!    total energy              =    -391.14508017 Ry
     Harris-Foulkes estimate   =    -391.14508020 Ry
     estimated scf accuracy    <       0.00000003 Ry

     total all-electron energy =     -2644.264016 Ry

     The total energy is the sum of the following terms:

     one-electron contribution =    -101.59255808 Ry
     hartree contribution      =      78.25686806 Ry
     xc contribution           =     -64.65661400 Ry
     ewald contribution        =    -138.99781517 Ry
     one-center paw contrib.   =    -164.15496099 Ry

     convergence has been achieved in  20 iterations

     Writing output data file qa.save/

     init_run     :      2.62s CPU      2.79s WALL (       1 calls)
     electrons    :     60.80s CPU     54.50s WALL (       1 calls)

     Called by init_run:
     wfcinit      :      0.22s CPU      0.18s WALL (       1 calls)
     potinit      :      0.87s CPU      0.89s WALL (       1 calls)
     hinit0       :      0.95s CPU      0.96s WALL (       1 calls)

     Called by electrons:
     c_bands      :      7.37s CPU      5.75s WALL (      20 calls)
     sum_band     :     27.73s CPU     18.81s WALL (      20 calls)
     v_of_rho     :      5.14s CPU      5.38s WALL (      21 calls)
     newd         :     10.52s CPU     14.25s WALL (      21 calls)
     PAW_pot      :     10.09s CPU     10.25s WALL (      21 calls)
     mix_rho      :      0.74s CPU      0.99s WALL (      20 calls)

     Called by c_bands:
     init_us_2    :      0.09s CPU      0.09s WALL (      41 calls)
     cegterg      :      7.04s CPU      5.41s WALL (      20 calls)

     Called by sum_band:
     sum_band:bec :      0.00s CPU      0.00s WALL (      20 calls)
     addusdens    :     25.72s CPU     16.88s WALL (      20 calls)

     Called by *egterg:
     h_psi        :      5.62s CPU      4.85s WALL (      68 calls)
     s_psi        :      0.60s CPU      0.10s WALL (      68 calls)
     g_psi        :      0.01s CPU      0.01s WALL (      47 calls)
     cdiaghg      :      0.07s CPU      0.07s WALL (      67 calls)

     Called by h_psi:
     h_psi:pot    :      5.61s CPU      4.84s WALL (      68 calls)
     h_psi:calbec :      0.44s CPU      0.12s WALL (      68 calls)
     vloc_psi     :      4.55s CPU      4.58s WALL (      68 calls)
     add_vuspsi   :      0.62s CPU      0.14s WALL (      68 calls)

     General routines
     calbec       :      0.59s CPU      0.16s WALL (      88 calls)
     fft          :      3.58s CPU      3.61s WALL (     271 calls)
     ffts         :      0.09s CPU      0.10s WALL (      41 calls)
     fftw         :      4.65s CPU      4.69s WALL (    3280 calls)
     interpolate  :      0.34s CPU      0.37s WALL (      21 calls)

     Parallel routines

     PWSCF        :   1m 4.18s CPU     58.08s WALL


   This run was terminated on:   3:50:12   7Jul2020            

=------------------------------------------------------------------------------=
   JOB DONE.
=------------------------------------------------------------------------------=
